 Entering Gaussian System, Link 0=g09
 Initial command:
 /software/lms/g09_D01/g09/l1.exe "/scratch/user/einsteinguan/7259021/Gau-17055.inp" -scrdir="/scratch/user/einsteinguan/7259021/"
 Default is to use a total of  20 processors:
                               20 via shared-memory
                                1 via Linda
 Entering Link 1 = /software/lms/g09_D01/g09/l1.exe PID=     17056.
  
 Copyright (c) 1988,1990,1992,1993,1995,1998,2003,2009,2013,
            Gaussian, Inc.  All Rights Reserved.
  
 This is part of the Gaussian(R) 09 program.  It is based on
 the Gaussian(R) 03 system (copyright 2003, Gaussian, Inc.),
 the Gaussian(R) 98 system (copyright 1998, Gaussian, Inc.),
 the Gaussian(R) 94 system (copyright 1995, Gaussian, Inc.),
 the Gaussian 92(TM) system (copyright 1992, Gaussian, Inc.),
 the Gaussian 90(TM) system (copyright 1990, Gaussian, Inc.),
 the Gaussian 88(TM) system (copyright 1988, Gaussian, Inc.),
 the Gaussian 86(TM) system (copyright 1986, Carnegie Mellon
 University), and the Gaussian 82(TM) system (copyright 1983,
 Carnegie Mellon University). Gaussian is a federally registered
 trademark of Gaussian, Inc.
  
 This software contains proprietary and confidential information,
 including trade secrets, belonging to Gaussian, Inc.
  
 This software is provided under written license and may be
 used, copied, transmitted, or stored only in accord with that
 written license.
  
 The following legend is applicable only to US Government
 contracts under FAR:
  
                    RESTRICTED RIGHTS LEGEND
  
 Use, reproduction and disclosure by the US Government is
 subject to restrictions as set forth in subparagraphs (a)
 and (c) of the Commercial Computer Software - Restricted
 Rights clause in FAR 52.227-19.
  
 Gaussian, Inc.
 340 Quinnipiac St., Bldg. 40, Wallingford CT 06492
  
  
 ---------------------------------------------------------------
 Warning -- This program may not be used in any manner that
 competes with the business of Gaussian, Inc. or will provide
 assistance to any competitor of Gaussian, Inc.  The licensee
 of this program is prohibited from giving any competitor of
 Gaussian, Inc. access to this program.  By using this program,
 the user acknowledges that Gaussian, Inc. is engaged in the
 business of creating and licensing software in the field of
 computational chemistry and represents and warrants to the
 licensee that it is not a competitor of Gaussian, Inc. and that
 it will not use this program in any manner prohibited above.
 ---------------------------------------------------------------
  

 Cite this work as:
 Gaussian 09, Revision D.01,
 M. J. Frisch, G. W. Trucks, H. B. Schlegel, G. E. Scuseria, 
 M. A. Robb, J. R. Cheeseman, G. Scalmani, V. Barone, B. Mennucci, 
 G. A. Petersson, H. Nakatsuji, M. Caricato, X. Li, H. P. Hratchian, 
 A. F. Izmaylov, J. Bloino, G. Zheng, J. L. Sonnenberg, M. Hada, 
 M. Ehara, K. Toyota, R. Fukuda, J. Hasegawa, M. Ishida, T. Nakajima, 
 Y. Honda, O. Kitao, H. Nakai, T. Vreven, J. A. Montgomery, Jr., 
 J. E. Peralta, F. Ogliaro, M. Bearpark, J. J. Heyd, E. Brothers, 
 K. N. Kudin, V. N. Staroverov, T. Keith, R. Kobayashi, J. Normand, 
 K. Raghavachari, A. Rendell, J. C. Burant, S. S. Iyengar, J. Tomasi, 
 M. Cossi, N. Rega, J. M. Millam, M. Klene, J. E. Knox, J. B. Cross, 
 V. Bakken, C. Adamo, J. Jaramillo, R. Gomperts, R. E. Stratmann, 
 O. Yazyev, A. J. Austin, R. Cammi, C. Pomelli, J. W. Ochterski, 
 R. L. Martin, K. Morokuma, V. G. Zakrzewski, G. A. Voth, 
 P. Salvador, J. J. Dannenberg, S. Dapprich, A. D. Daniels, 
 O. Farkas, J. B. Foresman, J. V. Ortiz, J. Cioslowski, 
 and D. J. Fox, Gaussian, Inc., Wallingford CT, 2013.
 
 ******************************************
 Gaussian 09:  ES64L-G09RevD.01 24-Apr-2013
                24-Feb-2018 
 ******************************************
 %chk=Lig1-Sub1.R.ts1.Cf1.chk
 ----------------------------------------------
 #M06/genecp denfit opt=(calcfc,ts,maxcyc=1000)
 ----------------------------------------------
 1/5=1,6=1000,10=4,14=-1,18=20,26=3,38=1/1,3;
 2/9=110,12=2,17=6,18=5,40=1/2;
 3/5=7,11=2,16=1,17=8,25=1,30=1,71=2,74=-54,82=47,140=1/1,2,3;
 4//1;
 5/5=2,38=5/2;
 8/6=4,10=90,11=11/1;
 11/6=1,8=1,9=11,15=111,16=1/1,2,10;
 10/6=1,13=1/2;
 6/7=2,8=2,9=2,10=2,28=1/1;
 7/10=1,18=20,25=1/1,2,3,16;
 1/5=1,6=1000,10=4,14=-1,18=20,26=3/3(2);
 2/9=110/2;
 99//99;
 2/9=110/2;
 3/5=7,6=1,11=2,16=1,17=8,25=1,30=1,71=1,74=-54,82=7/1,2,3;
 4/5=5,16=3,69=1/1;
 5/5=2,38=5/2;
 7//1,2,3,16;
 1/5=1,6=1000,14=-1,18=20,26=3/3(-5);
 2/9=110/2;
 6/7=2,8=2,9=2,10=2,19=2,28=1/1;
 99/9=1/99;
 --------------------------
 step 3 (attempt 1) cycle 1
 --------------------------
 Symbolic Z-matrix:
 Charge =  1 Multiplicity = 1
 C                    -3.86456   2.46935  -0.36154 
 C                    -2.94531   2.87541  -1.49996 
 C                    -1.69564   1.99848  -1.50341 
 C                    -1.01797   1.98008  -0.16111 
 C                    -1.6849    2.15255   1.00403 
 C                    -3.16878   2.36675   0.97545 
 O                    -3.793     2.39776   2.02059 
 C                    -1.09034   2.06829   2.37367 
 H                    -1.2251    3.00818   2.92674 
 H                    -1.61551   1.30394   2.96262 
 H                    -0.02601   1.80418   2.35099 
 H                    -4.30057   1.47517  -0.56595 
 H                    -4.71848   3.147    -0.24176 
 H                    -2.65626   3.93139  -1.3924 
 H                    -3.46488   2.78925  -2.46313 
 H                    -1.00313   2.30573  -2.29793 
 H                    -1.9798    0.96108  -1.75937 
 C                     2.40064   2.29394  -1.89595 
 H                     1.58283   2.2193   -2.62324 
 H                     3.07931   1.44664  -2.0613 
 H                     2.96686   3.2134   -2.1158 
 C                     1.91791   2.3222   -0.47139 
 C                     0.778     3.1055   -0.11518 
 C                     3.01597   2.30247   0.56312 
 C                     0.3071    4.22768  -0.98911 
 H                    -0.62865   4.66804  -0.63176 
 H                     1.09281   4.9978   -0.92126 
 H                     0.20819   3.97131  -2.04842 
 H                     0.71745   3.33939   0.95046 
 H                     3.75988   1.52839   0.31258 
 H                     2.61444   2.08508   1.5685 
 O                     3.58631   3.59665   0.51038 
 H                     4.3472    3.6532    1.10574 
 Pd                    0.61859   0.6958   -0.16819 
 C                    -0.11628  -2.20167  -0.66632 
 C                    -0.78637  -3.38494  -0.94981 
 C                    -2.14639  -3.4508   -0.6652 
 C                    -2.77107  -2.3397   -0.11122 
 C                    -4.23442  -2.40469   0.23896 
 C                    -2.02465  -1.18798   0.1277 
 N                    -0.72724  -1.11865  -0.15156 
 H                    -2.71694  -4.35538  -0.87076 
 H                    -0.25057  -4.2297   -1.37532 
 H                    -2.47828  -0.29432   0.558 
 C                     1.33716  -2.05694  -0.819 
 O                     2.01859  -3.04859  -1.37788 
 N                     1.99145  -1.04657  -0.36281 
 C                     3.38988  -2.5663   -1.44438 
 H                     4.04535  -3.41511  -1.23818 
 H                     3.55714  -2.21484  -2.46992 
 C                     3.42041  -1.44128  -0.40506 
 C                     3.94454  -1.88261   0.98902 
 H                     4.02468  -0.58996  -0.75231 
 F                    -4.93683  -2.92183  -0.7737 
 F                    -4.72952  -1.19661   0.51413 
 F                    -4.42812  -3.18636   1.30478 
 C                     3.79078  -0.74865   2.0003 
 H                     4.13306  -1.0844    2.98834 
 H                     4.40457   0.12011   1.72494 
 H                     2.74556  -0.42399   2.10253 
 C                     3.19734  -3.10897   1.51652 
 H                     3.2788   -3.98089   0.85318 
 H                     3.61737  -3.40486   2.48684 
 H                     2.13048  -2.89785   1.68188 
 C                     5.43441  -2.20371   0.84944 
 H                     5.85849  -2.44526   1.83311 
 H                     5.62976  -3.06699   0.19901 
 H                     5.9959   -1.3454    0.45172 
 

 GradGradGradGradGradGradGradGradGradGradGradGradGradGradGradGradGradGrad
 Berny optimization.
 Initialization pass.
                           ----------------------------
                           !    Initial Parameters    !
                           ! (Angstroms and Degrees)  !
 --------------------------                            --------------------------
 ! Name  Definition              Value          Derivative Info.                !
 --------------------------------------------------------------------------------
 ! R1    R(1,2)                  1.5185         calculate D2E/DX2 analytically  !
 ! R2    R(1,6)                  1.5107         calculate D2E/DX2 analytically  !
 ! R3    R(1,12)                 1.1047         calculate D2E/DX2 analytically  !
 ! R4    R(1,13)                 1.0967         calculate D2E/DX2 analytically  !
 ! R5    R(2,3)                  1.5267         calculate D2E/DX2 analytically  !
 ! R6    R(2,14)                 1.1001         calculate D2E/DX2 analytically  !
 ! R7    R(2,15)                 1.0978         calculate D2E/DX2 analytically  !
 ! R8    R(3,4)                  1.5038         calculate D2E/DX2 analytically  !
 ! R9    R(3,16)                 1.0978         calculate D2E/DX2 analytically  !
 ! R10   R(3,17)                 1.1057         calculate D2E/DX2 analytically  !
 ! R11   R(4,5)                  1.3535         calculate D2E/DX2 analytically  !
 ! R12   R(4,34)                 2.0803         calculate D2E/DX2 analytically  !
 ! R13   R(5,6)                  1.4995         calculate D2E/DX2 analytically  !
 ! R14   R(5,8)                  1.4955         calculate D2E/DX2 analytically  !
 ! R15   R(6,7)                  1.2178         calculate D2E/DX2 analytically  !
 ! R16   R(8,9)                  1.0988         calculate D2E/DX2 analytically  !
 ! R17   R(8,10)                 1.0986         calculate D2E/DX2 analytically  !
 ! R18   R(8,11)                 1.0968         calculate D2E/DX2 analytically  !
 ! R19   R(18,19)                1.097          calculate D2E/DX2 analytically  !
 ! R20   R(18,20)                1.0981         calculate D2E/DX2 analytically  !
 ! R21   R(18,21)                1.102          calculate D2E/DX2 analytically  !
 ! R22   R(18,22)                1.5044         calculate D2E/DX2 analytically  !
 ! R23   R(22,23)                1.4282         calculate D2E/DX2 analytically  !
 ! R24   R(22,24)                1.5088         calculate D2E/DX2 analytically  !
 ! R25   R(22,34)                2.1037         calculate D2E/DX2 analytically  !
 ! R26   R(23,25)                1.4983         calculate D2E/DX2 analytically  !
 ! R27   R(23,29)                1.0927         calculate D2E/DX2 analytically  !
 ! R28   R(23,34)                2.4155         calculate D2E/DX2 analytically  !
 ! R29   R(24,30)                1.1024         calculate D2E/DX2 analytically  !
 ! R30   R(24,31)                1.1042         calculate D2E/DX2 analytically  !
 ! R31   R(24,32)                1.4153         calculate D2E/DX2 analytically  !
 ! R32   R(25,26)                1.0942         calculate D2E/DX2 analytically  !
 ! R33   R(25,27)                1.1023         calculate D2E/DX2 analytically  !
 ! R34   R(25,28)                1.0944         calculate D2E/DX2 analytically  !
 ! R35   R(32,33)                0.9678         calculate D2E/DX2 analytically  !
 ! R36   R(34,41)                2.2591         calculate D2E/DX2 analytically  !
 ! R37   R(34,47)                2.2268         calculate D2E/DX2 analytically  !
 ! R38   R(35,36)                1.3891         calculate D2E/DX2 analytically  !
 ! R39   R(35,41)                1.3458         calculate D2E/DX2 analytically  !
 ! R40   R(35,45)                1.4686         calculate D2E/DX2 analytically  !
 ! R41   R(36,37)                1.391          calculate D2E/DX2 analytically  !
 ! R42   R(36,43)                1.0871         calculate D2E/DX2 analytically  !
 ! R43   R(37,38)                1.3898         calculate D2E/DX2 analytically  !
 ! R44   R(37,42)                1.0891         calculate D2E/DX2 analytically  !
 ! R45   R(38,39)                1.5061         calculate D2E/DX2 analytically  !
 ! R46   R(38,40)                1.3931         calculate D2E/DX2 analytically  !
 ! R47   R(39,54)                1.3365         calculate D2E/DX2 analytically  !
 ! R48   R(39,55)                1.3343         calculate D2E/DX2 analytically  !
 ! R49   R(39,56)                1.3358         calculate D2E/DX2 analytically  !
 ! R50   R(40,41)                1.3289         calculate D2E/DX2 analytically  !
 ! R51   R(40,44)                1.0907         calculate D2E/DX2 analytically  !
 ! R52   R(45,46)                1.3267         calculate D2E/DX2 analytically  !
 ! R53   R(45,47)                1.2873         calculate D2E/DX2 analytically  !
 ! R54   R(46,48)                1.4552         calculate D2E/DX2 analytically  !
 ! R55   R(47,51)                1.4831         calculate D2E/DX2 analytically  !
 ! R56   R(48,49)                1.0921         calculate D2E/DX2 analytically  !
 ! R57   R(48,50)                1.0969         calculate D2E/DX2 analytically  !
 ! R58   R(48,51)                1.5319         calculate D2E/DX2 analytically  !
 ! R59   R(51,52)                1.5534         calculate D2E/DX2 analytically  !
 ! R60   R(51,53)                1.1002         calculate D2E/DX2 analytically  !
 ! R61   R(52,57)                1.5272         calculate D2E/DX2 analytically  !
 ! R62   R(52,61)                1.5299         calculate D2E/DX2 analytically  !
 ! R63   R(52,65)                1.5305         calculate D2E/DX2 analytically  !
 ! R64   R(57,58)                1.0982         calculate D2E/DX2 analytically  !
 ! R65   R(57,59)                1.0988         calculate D2E/DX2 analytically  !
 ! R66   R(57,60)                1.0992         calculate D2E/DX2 analytically  !
 ! R67   R(61,62)                1.0986         calculate D2E/DX2 analytically  !
 ! R68   R(61,63)                1.0979         calculate D2E/DX2 analytically  !
 ! R69   R(61,64)                1.1001         calculate D2E/DX2 analytically  !
 ! R70   R(65,66)                1.0981         calculate D2E/DX2 analytically  !
 ! R71   R(65,67)                1.0984         calculate D2E/DX2 analytically  !
 ! R72   R(65,68)                1.1001         calculate D2E/DX2 analytically  !
 ! A1    A(2,1,6)              113.7563         calculate D2E/DX2 analytically  !
 ! A2    A(2,1,12)             109.9302         calculate D2E/DX2 analytically  !
 ! A3    A(2,1,13)             112.8307         calculate D2E/DX2 analytically  !
 ! A4    A(6,1,12)             106.5243         calculate D2E/DX2 analytically  !
 ! A5    A(6,1,13)             107.6928         calculate D2E/DX2 analytically  !
 ! A6    A(12,1,13)            105.6036         calculate D2E/DX2 analytically  !
 ! A7    A(1,2,3)              110.0973         calculate D2E/DX2 analytically  !
 ! A8    A(1,2,14)             110.0255         calculate D2E/DX2 analytically  !
 ! A9    A(1,2,15)             110.5038         calculate D2E/DX2 analytically  !
 ! A10   A(3,2,14)             109.6649         calculate D2E/DX2 analytically  !
 ! A11   A(3,2,15)             109.899          calculate D2E/DX2 analytically  !
 ! A12   A(14,2,15)            106.5881         calculate D2E/DX2 analytically  !
 ! A13   A(2,3,4)              111.9564         calculate D2E/DX2 analytically  !
 ! A14   A(2,3,16)             110.9297         calculate D2E/DX2 analytically  !
 ! A15   A(2,3,17)             109.2143         calculate D2E/DX2 analytically  !
 ! A16   A(4,3,16)             111.4178         calculate D2E/DX2 analytically  !
 ! A17   A(4,3,17)             108.1181         calculate D2E/DX2 analytically  !
 ! A18   A(16,3,17)            104.9019         calculate D2E/DX2 analytically  !
 ! A19   A(3,4,5)              123.0085         calculate D2E/DX2 analytically  !
 ! A20   A(3,4,34)             111.0407         calculate D2E/DX2 analytically  !
 ! A21   A(5,4,34)             117.9834         calculate D2E/DX2 analytically  !
 ! A22   A(4,5,6)              119.2999         calculate D2E/DX2 analytically  !
 ! A23   A(4,5,8)              125.8231         calculate D2E/DX2 analytically  !
 ! A24   A(6,5,8)              114.7667         calculate D2E/DX2 analytically  !
 ! A25   A(1,6,5)              118.8376         calculate D2E/DX2 analytically  !
 ! A26   A(1,6,7)              121.4503         calculate D2E/DX2 analytically  !
 ! A27   A(5,6,7)              119.6385         calculate D2E/DX2 analytically  !
 ! A28   A(5,8,9)              111.3474         calculate D2E/DX2 analytically  !
 ! A29   A(5,8,10)             109.8843         calculate D2E/DX2 analytically  !
 ! A30   A(5,8,11)             112.3595         calculate D2E/DX2 analytically  !
 ! A31   A(9,8,10)             105.4655         calculate D2E/DX2 analytically  !
 ! A32   A(9,8,11)             109.5948         calculate D2E/DX2 analytically  !
 ! A33   A(10,8,11)            107.904          calculate D2E/DX2 analytically  !
 ! A34   A(19,18,20)           107.9647         calculate D2E/DX2 analytically  !
 ! A35   A(19,18,21)           107.9133         calculate D2E/DX2 analytically  !
 ! A36   A(19,18,22)           112.9465         calculate D2E/DX2 analytically  !
 ! A37   A(20,18,21)           107.2291         calculate D2E/DX2 analytically  !
 ! A38   A(20,18,22)           110.8172         calculate D2E/DX2 analytically  !
 ! A39   A(21,18,22)           109.7622         calculate D2E/DX2 analytically  !
 ! A40   A(18,22,23)           120.1703         calculate D2E/DX2 analytically  !
 ! A41   A(18,22,24)           114.5513         calculate D2E/DX2 analytically  !
 ! A42   A(18,22,34)           108.6719         calculate D2E/DX2 analytically  !
 ! A43   A(23,22,24)           114.6477         calculate D2E/DX2 analytically  !
 ! A44   A(24,22,34)           109.9127         calculate D2E/DX2 analytically  !
 ! A45   A(22,23,25)           121.0743         calculate D2E/DX2 analytically  !
 ! A46   A(22,23,29)           113.8818         calculate D2E/DX2 analytically  !
 ! A47   A(25,23,29)           113.0242         calculate D2E/DX2 analytically  !
 ! A48   A(25,23,34)           135.5315         calculate D2E/DX2 analytically  !
 ! A49   A(29,23,34)           103.3722         calculate D2E/DX2 analytically  !
 ! A50   A(22,24,30)           110.149          calculate D2E/DX2 analytically  !
 ! A51   A(22,24,31)           111.2369         calculate D2E/DX2 analytically  !
 ! A52   A(22,24,32)           104.8202         calculate D2E/DX2 analytically  !
 ! A53   A(30,24,31)           108.3038         calculate D2E/DX2 analytically  !
 ! A54   A(30,24,32)           111.2031         calculate D2E/DX2 analytically  !
 ! A55   A(31,24,32)           111.1314         calculate D2E/DX2 analytically  !
 ! A56   A(23,25,26)           112.3162         calculate D2E/DX2 analytically  !
 ! A57   A(23,25,27)           105.2691         calculate D2E/DX2 analytically  !
 ! A58   A(23,25,28)           114.68           calculate D2E/DX2 analytically  !
 ! A59   A(26,25,27)           107.9572         calculate D2E/DX2 analytically  !
 ! A60   A(26,25,28)           109.4581         calculate D2E/DX2 analytically  !
 ! A61   A(27,25,28)           106.7192         calculate D2E/DX2 analytically  !
 ! A62   A(24,32,33)           110.3252         calculate D2E/DX2 analytically  !
 ! A63   A(4,34,22)             90.5211         calculate D2E/DX2 analytically  !
 ! A64   A(4,34,23)             55.6663         calculate D2E/DX2 analytically  !
 ! A65   A(4,34,41)             91.5562         calculate D2E/DX2 analytically  !
 ! A66   A(22,34,47)           102.2135         calculate D2E/DX2 analytically  !
 ! A67   A(23,34,41)           147.1786         calculate D2E/DX2 analytically  !
 ! A68   A(23,34,47)           137.8853         calculate D2E/DX2 analytically  !
 ! A69   A(41,34,47)            74.899          calculate D2E/DX2 analytically  !
 ! A70   A(36,35,41)           122.9959         calculate D2E/DX2 analytically  !
 ! A71   A(36,35,45)           122.6941         calculate D2E/DX2 analytically  !
 ! A72   A(41,35,45)           114.1892         calculate D2E/DX2 analytically  !
 ! A73   A(35,36,37)           118.0484         calculate D2E/DX2 analytically  !
 ! A74   A(35,36,43)           120.2695         calculate D2E/DX2 analytically  !
 ! A75   A(37,36,43)           121.6808         calculate D2E/DX2 analytically  !
 ! A76   A(36,37,38)           118.8909         calculate D2E/DX2 analytically  !
 ! A77   A(36,37,42)           120.8583         calculate D2E/DX2 analytically  !
 ! A78   A(38,37,42)           120.2508         calculate D2E/DX2 analytically  !
 ! A79   A(37,38,39)           119.6625         calculate D2E/DX2 analytically  !
 ! A80   A(37,38,40)           119.2399         calculate D2E/DX2 analytically  !
 ! A81   A(39,38,40)           121.0917         calculate D2E/DX2 analytically  !
 ! A82   A(38,39,54)           110.5591         calculate D2E/DX2 analytically  !
 ! A83   A(38,39,55)           111.6794         calculate D2E/DX2 analytically  !
 ! A84   A(38,39,56)           110.5885         calculate D2E/DX2 analytically  !
 ! A85   A(54,39,55)           108.1544         calculate D2E/DX2 analytically  !
 ! A86   A(54,39,56)           107.5725         calculate D2E/DX2 analytically  !
 ! A87   A(55,39,56)           108.1466         calculate D2E/DX2 analytically  !
 ! A88   A(38,40,41)           122.018          calculate D2E/DX2 analytically  !
 ! A89   A(38,40,44)           121.4814         calculate D2E/DX2 analytically  !
 ! A90   A(41,40,44)           116.5004         calculate D2E/DX2 analytically  !
 ! A91   A(34,41,35)           111.9053         calculate D2E/DX2 analytically  !
 ! A92   A(34,41,40)           128.685          calculate D2E/DX2 analytically  !
 ! A93   A(35,41,40)           118.7897         calculate D2E/DX2 analytically  !
 ! A94   A(35,45,46)           118.5861         calculate D2E/DX2 analytically  !
 ! A95   A(35,45,47)           122.925          calculate D2E/DX2 analytically  !
 ! A96   A(46,45,47)           118.3532         calculate D2E/DX2 analytically  !
 ! A97   A(45,46,48)           104.8061         calculate D2E/DX2 analytically  !
 ! A98   A(34,47,45)           109.3756         calculate D2E/DX2 analytically  !
 ! A99   A(34,47,51)           143.5882         calculate D2E/DX2 analytically  !
 ! A100  A(45,47,51)           105.7084         calculate D2E/DX2 analytically  !
 ! A101  A(46,48,49)           107.4199         calculate D2E/DX2 analytically  !
 ! A102  A(46,48,50)           107.0144         calculate D2E/DX2 analytically  !
 ! A103  A(46,48,51)           103.3664         calculate D2E/DX2 analytically  !
 ! A104  A(49,48,50)           109.5141         calculate D2E/DX2 analytically  !
 ! A105  A(49,48,51)           115.5143         calculate D2E/DX2 analytically  !
 ! A106  A(50,48,51)           113.3258         calculate D2E/DX2 analytically  !
 ! A107  A(47,51,48)           101.2786         calculate D2E/DX2 analytically  !
 ! A108  A(47,51,52)           112.0337         calculate D2E/DX2 analytically  !
 ! A109  A(47,51,53)           109.4051         calculate D2E/DX2 analytically  !
 ! A110  A(48,51,52)           114.0137         calculate D2E/DX2 analytically  !
 ! A111  A(48,51,53)           111.4115         calculate D2E/DX2 analytically  !
 ! A112  A(52,51,53)           108.5282         calculate D2E/DX2 analytically  !
 ! A113  A(51,52,57)           110.4485         calculate D2E/DX2 analytically  !
 ! A114  A(51,52,61)           111.8629         calculate D2E/DX2 analytically  !
 ! A115  A(51,52,65)           107.8317         calculate D2E/DX2 analytically  !
 ! A116  A(57,52,61)           108.5253         calculate D2E/DX2 analytically  !
 ! A117  A(57,52,65)           108.3127         calculate D2E/DX2 analytically  !
 ! A118  A(61,52,65)           109.7983         calculate D2E/DX2 analytically  !
 ! A119  A(52,57,58)           109.7165         calculate D2E/DX2 analytically  !
 ! A120  A(52,57,59)           111.4009         calculate D2E/DX2 analytically  !
 ! A121  A(52,57,60)           112.1246         calculate D2E/DX2 analytically  !
 ! A122  A(58,57,59)           107.0428         calculate D2E/DX2 analytically  !
 ! A123  A(58,57,60)           107.6365         calculate D2E/DX2 analytically  !
 ! A124  A(59,57,60)           108.7207         calculate D2E/DX2 analytically  !
 ! A125  A(52,61,62)           113.0669         calculate D2E/DX2 analytically  !
 ! A126  A(52,61,63)           109.5056         calculate D2E/DX2 analytically  !
 ! A127  A(52,61,64)           111.8173         calculate D2E/DX2 analytically  !
 ! A128  A(62,61,63)           106.9401         calculate D2E/DX2 analytically  !
 ! A129  A(62,61,64)           108.3608         calculate D2E/DX2 analytically  !
 ! A130  A(63,61,64)           106.8515         calculate D2E/DX2 analytically  !
 ! A131  A(52,65,66)           109.9013         calculate D2E/DX2 analytically  !
 ! A132  A(52,65,67)           113.0818         calculate D2E/DX2 analytically  !
 ! A133  A(52,65,68)           111.4784         calculate D2E/DX2 analytically  !
 ! A134  A(66,65,67)           106.7915         calculate D2E/DX2 analytically  !
 ! A135  A(66,65,68)           107.3598         calculate D2E/DX2 analytically  !
 ! A136  A(67,65,68)           107.9605         calculate D2E/DX2 analytically  !
 ! A137  L(4,34,47,23,-1)      193.5516         calculate D2E/DX2 analytically  !
 ! A138  L(22,34,41,47,-1)     177.1125         calculate D2E/DX2 analytically  !
 ! A139  L(4,34,47,23,-2)      186.7119         calculate D2E/DX2 analytically  !
 ! A140  L(22,34,41,47,-2)     187.8194         calculate D2E/DX2 analytically  !
 ! D1    D(6,1,2,3)             50.0048         calculate D2E/DX2 analytically  !
 ! D2    D(6,1,2,14)           -70.9763         calculate D2E/DX2 analytically  !
 ! D3    D(6,1,2,15)           171.5906         calculate D2E/DX2 analytically  !
 ! D4    D(12,1,2,3)           -69.3451         calculate D2E/DX2 analytically  !
 ! D5    D(12,1,2,14)          169.6738         calculate D2E/DX2 analytically  !
 ! D6    D(12,1,2,15)           52.2407         calculate D2E/DX2 analytically  !
 ! D7    D(13,1,2,3)           173.0685         calculate D2E/DX2 analytically  !
 ! D8    D(13,1,2,14)           52.0874         calculate D2E/DX2 analytically  !
 ! D9    D(13,1,2,15)          -65.3457         calculate D2E/DX2 analytically  !
 ! D10   D(2,1,6,5)            -22.4768         calculate D2E/DX2 analytically  !
 ! D11   D(2,1,6,7)            160.656          calculate D2E/DX2 analytically  !
 ! D12   D(12,1,6,5)            98.7921         calculate D2E/DX2 analytically  !
 ! D13   D(12,1,6,7)           -78.0751         calculate D2E/DX2 analytically  !
 ! D14   D(13,1,6,5)          -148.3069         calculate D2E/DX2 analytically  !
 ! D15   D(13,1,6,7)            34.8258         calculate D2E/DX2 analytically  !
 ! D16   D(1,2,3,4)            -52.6733         calculate D2E/DX2 analytically  !
 ! D17   D(1,2,3,16)          -177.8233         calculate D2E/DX2 analytically  !
 ! D18   D(1,2,3,17)            67.0346         calculate D2E/DX2 analytically  !
 ! D19   D(14,2,3,4)            68.5236         calculate D2E/DX2 analytically  !
 ! D20   D(14,2,3,16)          -56.6264         calculate D2E/DX2 analytically  !
 ! D21   D(14,2,3,17)         -171.7685         calculate D2E/DX2 analytically  !
 ! D22   D(15,2,3,4)          -174.6186         calculate D2E/DX2 analytically  !
 ! D23   D(15,2,3,16)           60.2314         calculate D2E/DX2 analytically  !
 ! D24   D(15,2,3,17)          -54.9107         calculate D2E/DX2 analytically  !
 ! D25   D(2,3,4,5)             28.7098         calculate D2E/DX2 analytically  !
 ! D26   D(2,3,4,34)           176.8559         calculate D2E/DX2 analytically  !
 ! D27   D(16,3,4,5)           153.59           calculate D2E/DX2 analytically  !
 ! D28   D(16,3,4,34)          -58.264          calculate D2E/DX2 analytically  !
 ! D29   D(17,3,4,5)           -91.6387         calculate D2E/DX2 analytically  !
 ! D30   D(17,3,4,34)           56.5073         calculate D2E/DX2 analytically  !
 ! D31   D(3,4,5,6)              0.2946         calculate D2E/DX2 analytically  !
 ! D32   D(3,4,5,8)            176.2648         calculate D2E/DX2 analytically  !
 ! D33   D(34,4,5,6)          -145.8028         calculate D2E/DX2 analytically  !
 ! D34   D(34,4,5,8)            30.1674         calculate D2E/DX2 analytically  !
 ! D35   D(3,4,34,22)           98.4388         calculate D2E/DX2 analytically  !
 ! D36   D(3,4,34,23)          108.1137         calculate D2E/DX2 analytically  !
 ! D37   D(3,4,34,41)          -73.7031         calculate D2E/DX2 analytically  !
 ! D38   D(5,4,34,22)         -111.6383         calculate D2E/DX2 analytically  !
 ! D39   D(5,4,34,23)         -101.9634         calculate D2E/DX2 analytically  !
 ! D40   D(5,4,34,41)           76.2198         calculate D2E/DX2 analytically  !
 ! D41   D(3,4,47,45)          -50.4151         calculate D2E/DX2 analytically  !
 ! D42   D(3,4,47,51)          110.3692         calculate D2E/DX2 analytically  !
 ! D43   D(5,4,47,45)           93.4758         calculate D2E/DX2 analytically  !
 ! D44   D(5,4,47,51)         -105.7399         calculate D2E/DX2 analytically  !
 ! D45   D(4,5,6,1)             -3.7562         calculate D2E/DX2 analytically  !
 ! D46   D(4,5,6,7)            173.1691         calculate D2E/DX2 analytically  !
 ! D47   D(8,5,6,1)            179.8417         calculate D2E/DX2 analytically  !
 ! D48   D(8,5,6,7)             -3.2331         calculate D2E/DX2 analytically  !
 ! D49   D(4,5,8,9)            121.0595         calculate D2E/DX2 analytically  !
 ! D50   D(4,5,8,10)          -122.4653         calculate D2E/DX2 analytically  !
 ! D51   D(4,5,8,11)            -2.3152         calculate D2E/DX2 analytically  !
 ! D52   D(6,5,8,9)            -62.8105         calculate D2E/DX2 analytically  !
 ! D53   D(6,5,8,10)            53.6647         calculate D2E/DX2 analytically  !
 ! D54   D(6,5,8,11)           173.8148         calculate D2E/DX2 analytically  !
 ! D55   D(19,18,22,23)        -42.3586         calculate D2E/DX2 analytically  !
 ! D56   D(19,18,22,24)        174.9027         calculate D2E/DX2 analytically  !
 ! D57   D(19,18,22,34)         51.5621         calculate D2E/DX2 analytically  !
 ! D58   D(20,18,22,23)       -163.6437         calculate D2E/DX2 analytically  !
 ! D59   D(20,18,22,24)         53.6177         calculate D2E/DX2 analytically  !
 ! D60   D(20,18,22,34)        -69.7229         calculate D2E/DX2 analytically  !
 ! D61   D(21,18,22,23)         78.1069         calculate D2E/DX2 analytically  !
 ! D62   D(21,18,22,24)        -64.6318         calculate D2E/DX2 analytically  !
 ! D63   D(21,18,22,34)        172.0276         calculate D2E/DX2 analytically  !
 ! D64   D(18,22,23,25)        -19.7709         calculate D2E/DX2 analytically  !
 ! D65   D(18,22,23,29)       -159.7871         calculate D2E/DX2 analytically  !
 ! D66   D(24,22,23,25)        122.9341         calculate D2E/DX2 analytically  !
 ! D67   D(24,22,23,29)        -17.0821         calculate D2E/DX2 analytically  !
 ! D68   D(18,22,24,30)        -46.4781         calculate D2E/DX2 analytically  !
 ! D69   D(18,22,24,31)       -166.5769         calculate D2E/DX2 analytically  !
 ! D70   D(18,22,24,32)         73.2306         calculate D2E/DX2 analytically  !
 ! D71   D(23,22,24,30)        168.6849         calculate D2E/DX2 analytically  !
 ! D72   D(23,22,24,31)         48.5862         calculate D2E/DX2 analytically  !
 ! D73   D(23,22,24,32)        -71.6063         calculate D2E/DX2 analytically  !
 ! D74   D(34,22,24,30)         76.1938         calculate D2E/DX2 analytically  !
 ! D75   D(34,22,24,31)        -43.905          calculate D2E/DX2 analytically  !
 ! D76   D(34,22,24,32)       -164.0975         calculate D2E/DX2 analytically  !
 ! D77   D(18,22,34,4)        -106.2027         calculate D2E/DX2 analytically  !
 ! D78   D(18,22,34,47)         66.9173         calculate D2E/DX2 analytically  !
 ! D79   D(24,22,34,4)         127.7186         calculate D2E/DX2 analytically  !
 ! D80   D(24,22,34,47)        -59.1614         calculate D2E/DX2 analytically  !
 ! D81   D(18,22,41,35)         48.4329         calculate D2E/DX2 analytically  !
 ! D82   D(18,22,41,40)       -118.3062         calculate D2E/DX2 analytically  !
 ! D83   D(24,22,41,35)        -76.3699         calculate D2E/DX2 analytically  !
 ! D84   D(24,22,41,40)        116.8911         calculate D2E/DX2 analytically  !
 ! D85   D(22,23,25,26)        174.5331         calculate D2E/DX2 analytically  !
 ! D86   D(22,23,25,27)        -68.2401         calculate D2E/DX2 analytically  !
 ! D87   D(22,23,25,28)         48.7369         calculate D2E/DX2 analytically  !
 ! D88   D(29,23,25,26)        -45.1404         calculate D2E/DX2 analytically  !
 ! D89   D(29,23,25,27)         72.0865         calculate D2E/DX2 analytically  !
 ! D90   D(29,23,25,28)       -170.9365         calculate D2E/DX2 analytically  !
 ! D91   D(34,23,25,26)         97.2003         calculate D2E/DX2 analytically  !
 ! D92   D(34,23,25,27)       -145.5729         calculate D2E/DX2 analytically  !
 ! D93   D(34,23,25,28)        -28.5959         calculate D2E/DX2 analytically  !
 ! D94   D(25,23,34,4)         -58.1617         calculate D2E/DX2 analytically  !
 ! D95   D(25,23,34,41)        -61.5138         calculate D2E/DX2 analytically  !
 ! D96   D(25,23,34,47)        115.1264         calculate D2E/DX2 analytically  !
 ! D97   D(29,23,34,4)          86.5307         calculate D2E/DX2 analytically  !
 ! D98   D(29,23,34,41)         83.1786         calculate D2E/DX2 analytically  !
 ! D99   D(29,23,34,47)       -100.1812         calculate D2E/DX2 analytically  !
 ! D100  D(22,24,32,33)       -176.0664         calculate D2E/DX2 analytically  !
 ! D101  D(30,24,32,33)        -57.0649         calculate D2E/DX2 analytically  !
 ! D102  D(31,24,32,33)         63.671          calculate D2E/DX2 analytically  !
 ! D103  D(4,34,41,35)         155.6725         calculate D2E/DX2 analytically  !
 ! D104  D(4,34,41,40)         -15.0597         calculate D2E/DX2 analytically  !
 ! D105  D(23,34,41,35)        158.441          calculate D2E/DX2 analytically  !
 ! D106  D(23,34,41,40)        -12.2911         calculate D2E/DX2 analytically  !
 ! D107  D(47,34,41,35)        -19.226          calculate D2E/DX2 analytically  !
 ! D108  D(47,34,41,40)        170.0419         calculate D2E/DX2 analytically  !
 ! D109  D(22,34,47,45)       -150.1267         calculate D2E/DX2 analytically  !
 ! D110  D(22,34,47,51)         13.6731         calculate D2E/DX2 analytically  !
 ! D111  D(23,34,47,45)       -156.0606         calculate D2E/DX2 analytically  !
 ! D112  D(23,34,47,51)          7.7391         calculate D2E/DX2 analytically  !
 ! D113  D(41,34,47,45)         22.0539         calculate D2E/DX2 analytically  !
 ! D114  D(41,34,47,51)       -174.1464         calculate D2E/DX2 analytically  !
 ! D115  D(41,35,36,37)         -1.0586         calculate D2E/DX2 analytically  !
 ! D116  D(41,35,36,43)        179.344          calculate D2E/DX2 analytically  !
 ! D117  D(45,35,36,37)        174.712          calculate D2E/DX2 analytically  !
 ! D118  D(45,35,36,43)         -4.8854         calculate D2E/DX2 analytically  !
 ! D119  D(36,35,41,34)       -170.2302         calculate D2E/DX2 analytically  !
 ! D120  D(36,35,41,40)          1.5225         calculate D2E/DX2 analytically  !
 ! D121  D(45,35,41,34)         13.6712         calculate D2E/DX2 analytically  !
 ! D122  D(45,35,41,40)       -174.5761         calculate D2E/DX2 analytically  !
 ! D123  D(36,35,45,46)          7.0612         calculate D2E/DX2 analytically  !
 ! D124  D(36,35,45,47)       -168.6295         calculate D2E/DX2 analytically  !
 ! D125  D(41,35,45,46)       -176.8269         calculate D2E/DX2 analytically  !
 ! D126  D(41,35,45,47)          7.4823         calculate D2E/DX2 analytically  !
 ! D127  D(35,36,37,38)         -0.1311         calculate D2E/DX2 analytically  !
 ! D128  D(35,36,37,42)        179.883          calculate D2E/DX2 analytically  !
 ! D129  D(43,36,37,38)        179.4603         calculate D2E/DX2 analytically  !
 ! D130  D(43,36,37,42)         -0.5256         calculate D2E/DX2 analytically  !
 ! D131  D(36,37,38,39)       -178.3226         calculate D2E/DX2 analytically  !
 ! D132  D(36,37,38,40)          0.8031         calculate D2E/DX2 analytically  !
 ! D133  D(42,37,38,39)          1.6633         calculate D2E/DX2 analytically  !
 ! D134  D(42,37,38,40)       -179.2109         calculate D2E/DX2 analytically  !
 ! D135  D(37,38,39,54)        -47.5727         calculate D2E/DX2 analytically  !
 ! D136  D(37,38,39,55)       -168.0503         calculate D2E/DX2 analytically  !
 ! D137  D(37,38,39,56)         71.462          calculate D2E/DX2 analytically  !
 ! D138  D(40,38,39,54)        133.3182         calculate D2E/DX2 analytically  !
 ! D139  D(40,38,39,55)         12.8406         calculate D2E/DX2 analytically  !
 ! D140  D(40,38,39,56)       -107.6472         calculate D2E/DX2 analytically  !
 ! D141  D(37,38,40,41)         -0.3568         calculate D2E/DX2 analytically  !
 ! D142  D(37,38,40,44)        179.8012         calculate D2E/DX2 analytically  !
 ! D143  D(39,38,40,41)        178.7561         calculate D2E/DX2 analytically  !
 ! D144  D(39,38,40,44)         -1.0859         calculate D2E/DX2 analytically  !
 ! D145  D(38,40,41,34)        169.3938         calculate D2E/DX2 analytically  !
 ! D146  D(38,40,41,35)         -0.7895         calculate D2E/DX2 analytically  !
 ! D147  D(44,40,41,34)        -10.7568         calculate D2E/DX2 analytically  !
 ! D148  D(44,40,41,35)        179.0599         calculate D2E/DX2 analytically  !
 ! D149  D(35,45,46,48)        177.0121         calculate D2E/DX2 analytically  !
 ! D150  D(47,45,46,48)         -7.0977         calculate D2E/DX2 analytically  !
 ! D151  D(35,45,47,34)        -24.1619         calculate D2E/DX2 analytically  !
 ! D152  D(35,45,47,51)        165.7441         calculate D2E/DX2 analytically  !
 ! D153  D(46,45,47,34)        160.1379         calculate D2E/DX2 analytically  !
 ! D154  D(46,45,47,51)         -9.9561         calculate D2E/DX2 analytically  !
 ! D155  D(45,46,48,49)        142.641          calculate D2E/DX2 analytically  !
 ! D156  D(45,46,48,50)        -99.8342         calculate D2E/DX2 analytically  !
 ! D157  D(45,46,48,51)         20.055          calculate D2E/DX2 analytically  !
 ! D158  D(34,47,51,48)       -142.8922         calculate D2E/DX2 analytically  !
 ! D159  D(34,47,51,52)         95.2119         calculate D2E/DX2 analytically  !
 ! D160  D(34,47,51,53)        -25.187          calculate D2E/DX2 analytically  !
 ! D161  D(45,47,51,48)         21.2408         calculate D2E/DX2 analytically  !
 ! D162  D(45,47,51,52)       -100.6551         calculate D2E/DX2 analytically  !
 ! D163  D(45,47,51,53)        138.946          calculate D2E/DX2 analytically  !
 ! D164  D(46,48,51,47)        -24.7774         calculate D2E/DX2 analytically  !
 ! D165  D(46,48,51,52)         95.7291         calculate D2E/DX2 analytically  !
 ! D166  D(46,48,51,53)       -141.0157         calculate D2E/DX2 analytically  !
 ! D167  D(49,48,51,47)       -141.8016         calculate D2E/DX2 analytically  !
 ! D168  D(49,48,51,52)        -21.2951         calculate D2E/DX2 analytically  !
 ! D169  D(49,48,51,53)        101.9601         calculate D2E/DX2 analytically  !
 ! D170  D(50,48,51,47)         90.6894         calculate D2E/DX2 analytically  !
 ! D171  D(50,48,51,52)       -148.8041         calculate D2E/DX2 analytically  !
 ! D172  D(50,48,51,53)        -25.5489         calculate D2E/DX2 analytically  !
 ! D173  D(47,51,52,57)        -59.2134         calculate D2E/DX2 analytically  !
 ! D174  D(47,51,52,61)         61.7826         calculate D2E/DX2 analytically  !
 ! D175  D(47,51,52,65)       -177.3904         calculate D2E/DX2 analytically  !
 ! D176  D(48,51,52,57)       -173.4991         calculate D2E/DX2 analytically  !
 ! D177  D(48,51,52,61)        -52.5031         calculate D2E/DX2 analytically  !
 ! D178  D(48,51,52,65)         68.3239         calculate D2E/DX2 analytically  !
 ! D179  D(53,51,52,57)         61.694          calculate D2E/DX2 analytically  !
 ! D180  D(53,51,52,61)       -177.31           calculate D2E/DX2 analytically  !
 ! D181  D(53,51,52,65)        -56.483          calculate D2E/DX2 analytically  !
 ! D182  D(51,52,57,58)        178.098          calculate D2E/DX2 analytically  !
 ! D183  D(51,52,57,59)        -63.5526         calculate D2E/DX2 analytically  !
 ! D184  D(51,52,57,60)         58.5516         calculate D2E/DX2 analytically  !
 ! D185  D(61,52,57,58)         55.1354         calculate D2E/DX2 analytically  !
 ! D186  D(61,52,57,59)        173.4849         calculate D2E/DX2 analytically  !
 ! D187  D(61,52,57,60)        -64.411          calculate D2E/DX2 analytically  !
 ! D188  D(65,52,57,58)        -64.0199         calculate D2E/DX2 analytically  !
 ! D189  D(65,52,57,59)         54.3296         calculate D2E/DX2 analytically  !
 ! D190  D(65,52,57,60)        176.4337         calculate D2E/DX2 analytically  !
 ! D191  D(51,52,61,62)         59.1942         calculate D2E/DX2 analytically  !
 ! D192  D(51,52,61,63)        178.3262         calculate D2E/DX2 analytically  !
 ! D193  D(51,52,61,64)        -63.4397         calculate D2E/DX2 analytically  !
 ! D194  D(57,52,61,62)       -178.7014         calculate D2E/DX2 analytically  !
 ! D195  D(57,52,61,63)        -59.5694         calculate D2E/DX2 analytically  !
 ! D196  D(57,52,61,64)         58.6648         calculate D2E/DX2 analytically  !
 ! D197  D(65,52,61,62)        -60.4839         calculate D2E/DX2 analytically  !
 ! D198  D(65,52,61,63)         58.6481         calculate D2E/DX2 analytically  !
 ! D199  D(65,52,61,64)        176.8822         calculate D2E/DX2 analytically  !
 ! D200  D(51,52,65,66)        175.6357         calculate D2E/DX2 analytically  !
 ! D201  D(51,52,65,67)        -65.1384         calculate D2E/DX2 analytically  !
 ! D202  D(51,52,65,68)         56.7248         calculate D2E/DX2 analytically  !
 ! D203  D(57,52,65,66)         56.0952         calculate D2E/DX2 analytically  !
 ! D204  D(57,52,65,67)        175.3212         calculate D2E/DX2 analytically  !
 ! D205  D(57,52,65,68)        -62.8156         calculate D2E/DX2 analytically  !
 ! D206  D(61,52,65,66)        -62.2538         calculate D2E/DX2 analytically  !
 ! D207  D(61,52,65,67)         56.9721         calculate D2E/DX2 analytically  !
 ! D208  D(61,52,65,68)        178.8354         calculate D2E/DX2 analytically  !
 --------------------------------------------------------------------------------
 Trust Radius=3.00D-01 FncErr=1.00D-07 GrdErr=1.00D-06
 Number of steps in this run=    408 maximum allowed number of steps=    408.
 Search for a saddle point of order  1.
 GradGradGradGradGradGradGradGradGradGradGradGradGradGradGradGradGradGrad

 Stoichiometry    C25H34F3N2O3Pd(1+)
 Framework group  C1[X(C25H34F3N2O3Pd)]
 Deg. of freedom   198
 Full point group                 C1      NOp   1
 Largest Abelian subgroup         C1      NOp   1
 Largest concise Abelian subgroup C1      NOp   1
                         Standard orientation:                         
 ---------------------------------------------------------------------
 Center     Atomic      Atomic             Coordinates (Angstroms)
 Number     Number       Type             X           Y           Z
 ---------------------------------------------------------------------
      1          6           0       -3.864556    2.469351   -0.361544
      2          6           0       -2.945309    2.875410   -1.499963
      3          6           0       -1.695643    1.998484   -1.503406
      4          6           0       -1.017971    1.980080   -0.161107
      5          6           0       -1.684904    2.152551    1.004033
      6          6           0       -3.168781    2.366748    0.975454
      7          8           0       -3.792997    2.397760    2.020594
      8          6           0       -1.090339    2.068292    2.373666
      9          1           0       -1.225095    3.008181    2.926744
     10          1           0       -1.615512    1.303938    2.962615
     11          1           0       -0.026005    1.804181    2.350987
     12          1           0       -4.300566    1.475171   -0.565946
     13          1           0       -4.718484    3.146997   -0.241758
     14          1           0       -2.656261    3.931387   -1.392402
     15          1           0       -3.464878    2.789246   -2.463129
     16          1           0       -1.003131    2.305732   -2.297934
     17          1           0       -1.979799    0.961077   -1.759368
     18          6           0        2.400635    2.293940   -1.895954
     19          1           0        1.582826    2.219295   -2.623236
     20          1           0        3.079313    1.446642   -2.061296
     21          1           0        2.966858    3.213397   -2.115799
     22          6           0        1.917908    2.322199   -0.471389
     23          6           0        0.777996    3.105497   -0.115184
     24          6           0        3.015969    2.302470    0.563119
     25          6           0        0.307099    4.227682   -0.989111
     26          1           0       -0.628649    4.668038   -0.631757
     27          1           0        1.092805    4.997801   -0.921256
     28          1           0        0.208189    3.971308   -2.048424
     29          1           0        0.717446    3.339387    0.950461
     30          1           0        3.759882    1.528388    0.312581
     31          1           0        2.614439    2.085075    1.568498
     32          8           0        3.586313    3.596652    0.510377
     33          1           0        4.347205    3.653202    1.105742
     34         46           0        0.618585    0.695797   -0.168192
     35          6           0       -0.116284   -2.201665   -0.666324
     36          6           0       -0.786374   -3.384942   -0.949808
     37          6           0       -2.146386   -3.450798   -0.665203
     38          6           0       -2.771070   -2.339696   -0.111221
     39          6           0       -4.234418   -2.404693    0.238957
     40          6           0       -2.024652   -1.187978    0.127696
     41          7           0       -0.727237   -1.118649   -0.151557
     42          1           0       -2.716935   -4.355375   -0.870761
     43          1           0       -0.250566   -4.229700   -1.375322
     44          1           0       -2.478275   -0.294315    0.558004
     45          6           0        1.337158   -2.056942   -0.819004
     46          8           0        2.018591   -3.048594   -1.377876
     47          7           0        1.991448   -1.046573   -0.362808
     48          6           0        3.389882   -2.566299   -1.444376
     49          1           0        4.045347   -3.415110   -1.238177
     50          1           0        3.557140   -2.214845   -2.469916
     51          6           0        3.420407   -1.441284   -0.405058
     52          6           0        3.944539   -1.882605    0.989024
     53          1           0        4.024682   -0.589957   -0.752310
     54          9           0       -4.936831   -2.921828   -0.773704
     55          9           0       -4.729520   -1.196605    0.514134
     56          9           0       -4.428118   -3.186358    1.304778
     57          6           0        3.790778   -0.748645    2.000302
     58          1           0        4.133063   -1.084402    2.988343
     59          1           0        4.404571    0.120109    1.724937
     60          1           0        2.745564   -0.423994    2.102530
     61          6           0        3.197340   -3.108974    1.516522
     62          1           0        3.278800   -3.980890    0.853180
     63          1           0        3.617367   -3.404858    2.486838
     64          1           0        2.130476   -2.897848    1.681880
     65          6           0        5.434410   -2.203713    0.849435
     66          1           0        5.858487   -2.445258    1.833107
     67          1           0        5.629761   -3.066989    0.199013
     68          1           0        5.995903   -1.345396    0.451722
 ---------------------------------------------------------------------
 Rotational constants (GHZ):      0.1390569      0.0981882      0.0670482
 General basis read from cards:  (5D, 7F)
 ======================================================================================================
                                       Pseudopotential Parameters
 ======================================================================================================
  Center     Atomic      Valence      Angular      Power
  Number     Number     Electrons     Momentum     of R      Exponent        Coefficient   SO-Coeffient
 ======================================================================================================
    1          6
                                   No pseudopotential on this center.
    2          6
                                   No pseudopotential on this center.
    3          6
                                   No pseudopotential on this center.
    4          6
                                   No pseudopotential on this center.
    5          6
                                   No pseudopotential on this center.
    6          6
                                   No pseudopotential on this center.
    7          8
                                   No pseudopotential on this center.
    8          6
                                   No pseudopotential on this center.
    9          1
                                   No pseudopotential on this center.
   10          1
                                   No pseudopotential on this center.
   11          1
                                   No pseudopotential on this center.
   12          1
                                   No pseudopotential on this center.
   13          1
                                   No pseudopotential on this center.
   14          1
                                   No pseudopotential on this center.
   15          1
                                   No pseudopotential on this center.
   16          1
                                   No pseudopotential on this center.
   17          1
                                   No pseudopotential on this center.
   18          6
                                   No pseudopotential on this center.
   19          1
                                   No pseudopotential on this center.
   20          1
                                   No pseudopotential on this center.
   21          1
                                   No pseudopotential on this center.
   22          6
                                   No pseudopotential on this center.
   23          6
                                   No pseudopotential on this center.
   24          6
                                   No pseudopotential on this center.
   25          6
                                   No pseudopotential on this center.
   26          1
                                   No pseudopotential on this center.
   27          1
                                   No pseudopotential on this center.
   28          1
                                   No pseudopotential on this center.
   29          1
                                   No pseudopotential on this center.
   30          1
                                   No pseudopotential on this center.
   31          1
                                   No pseudopotential on this center.
   32          8
                                   No pseudopotential on this center.
   33          1
                                   No pseudopotential on this center.
   34         46           18
                                      F and up 
                                                     0      598.3336444       -0.05631770    0.00000000
                                                     1      162.4298290      -20.12880360    0.00000000
                                                     2       51.5714771     -105.81979230    0.00000000
                                                     2       16.4888260      -42.57333450    0.00000000
                                                     2        5.8287656       -3.61650860    0.00000000
                                      S - F
                                                     0       73.3806304        3.00036510    0.00000000
                                                     1       14.7550438       32.43500930    0.00000000
                                                     2       17.8350204      459.08303830    0.00000000
                                                     2       12.7111477     -868.06290290    0.00000000
                                                     2        9.3292063      514.47260980    0.00000000
                                      P - F
                                                     0       55.6689877        4.95930990    0.00000000
                                                     1       64.2337771       21.17110290    0.00000000
                                                     2       17.6254952      605.05600920    0.00000000
                                                     2       11.9058155     -726.96418460    0.00000000
                                                     2        8.5100832      396.32748830    0.00000000
                                      D - F
                                                     0       49.9994728        3.05087450    0.00000000
                                                     1       39.7477547       22.25065800    0.00000000
                                                     2       11.4321366      674.83576980    0.00000000
                                                     2        9.1790080    -1040.85540480    0.00000000
                                                     2        7.5624429      505.93751470    0.00000000
   35          6
                                   No pseudopotential on this center.
   36          6
                                   No pseudopotential on this center.
   37          6
                                   No pseudopotential on this center.
   38          6
                                   No pseudopotential on this center.
   39          6
                                   No pseudopotential on this center.
   40          6
                                   No pseudopotential on this center.
   41          7
                                   No pseudopotential on this center.
   42          1
                                   No pseudopotential on this center.
   43          1
                                   No pseudopotential on this center.
   44          1
                                   No pseudopotential on this center.
   45          6
                                   No pseudopotential on this center.
   46          8
                                   No pseudopotential on this center.
   47          7
                                   No pseudopotential on this center.
   48          6
                                   No pseudopotential on this center.
   49          1
                                   No pseudopotential on this center.
   50          1
                                   No pseudopotential on this center.
   51          6
                                   No pseudopotential on this center.
   52          6
                                   No pseudopotential on this center.
   53          1
                                   No pseudopotential on this center.
   54          9
                                   No pseudopotential on this center.
   55          9
                                   No pseudopotential on this center.
   56          9
                                   No pseudopotential on this center.
   57          6
                                   No pseudopotential on this center.
   58          1
                                   No pseudopotential on this center.
   59          1
                                   No pseudopotential on this center.
   60          1
                                   No pseudopotential on this center.
   61          6
                                   No pseudopotential on this center.
   62          1
                                   No pseudopotential on this center.
   63          1
                                   No pseudopotential on this center.
   64          1
                                   No pseudopotential on this center.
   65          6
                                   No pseudopotential on this center.
   66          1
                                   No pseudopotential on this center.
   67          1
                                   No pseudopotential on this center.
   68          1
                                   No pseudopotential on this center.
 ======================================================================================================
 There are   719 symmetry adapted cartesian basis functions of A   symmetry.
 There are   684 symmetry adapted basis functions of A   symmetry.
   684 basis functions,  1241 primitive gaussians,   719 cartesian basis functions
   133 alpha electrons      133 beta electrons
       nuclear repulsion energy      4336.7291144123 Hartrees.
 NAtoms=   68 NActive=   68 NUniq=   68 SFac= 1.00D+00 NAtFMM=   60 NAOKFM=T Big=T
 Integral buffers will be    131072 words long.
 Raffenetti 2 integral format.
 Two-electron integral symmetry is turned on.
 Standard density basis: Auto (5D, 7F)
  2970 Density fitting functions
 There are  2970 symmetry adapted density basis functions of A   symmetry.
 One-electron integrals computed using PRISM.
   1 Symmetry operations used in ECPInt.
 ECPInt:  NShTT=   29161 NPrTT=  151684 LenC2=   25159 LenP2D=   76540.
 LDataN:  DoStor=T MaxTD1= 5 Len=  102
 NBasis=   684 RedAO= T EigKep=  1.12D-06  NBF=   684
 NBsUse=   681 1.00D-06 EigRej=  9.52D-07 NBFU=   681
 Defaulting to unpruned grid for atomic number  46.
 ExpMin= 2.62D-02 ExpMax= 7.00D+03 ExpMxC= 1.05D+03 IAcc=3 IRadAn=         5 AccDes= 0.00D+00
 Harris functional with IExCor= 1009 and IRadAn=       5 diagonalized for initial guess.
 HarFok:  IExCor= 1009 AccDes= 0.00D+00 IRadAn=         5 IDoV= 1 UseB2=F ITyADJ=14
 ICtDFT=  3500011 ScaDFX=  1.000000  1.000000  1.000000  1.000000
 Defaulting to unpruned grid for atomic number  46.
 Defaulting to unpruned grid for atomic number  46.
 Defaulting to unpruned grid for atomic number  46.
 Defaulting to unpruned grid for atomic number  46.
 Defaulting to unpruned grid for atomic number  46.
 Defaulting to unpruned grid for atomic number  46.
 Defaulting to unpruned grid for atomic number  46.
 Defaulting to unpruned grid for atomic number  46.
 Defaulting to unpruned grid for atomic number  46.
 Defaulting to unpruned grid for atomic number  46.
 Defaulting to unpruned grid for atomic number  46.
 Defaulting to unpruned grid for atomic number  46.
 Defaulting to unpruned grid for atomic number  46.
 Defaulting to unpruned grid for atomic number  46.
 Defaulting to unpruned grid for atomic number  46.
 Defaulting to unpruned grid for atomic number  46.
 Defaulting to unpruned grid for atomic number  46.
 Defaulting to unpruned grid for atomic number  46.
 Defaulting to unpruned grid for atomic number  46.
 Defaulting to unpruned grid for atomic number  46.
 FoFCou: FMM=F IPFlag=           0 FMFlag=      100000 FMFlg1=        2001
         NFxFlg=           0 DoJE=T BraDBF=F KetDBF=T FulRan=T
         wScrn=  0.000000 ICntrl=     500 IOpCl=  0 I1Cent=   200000004 NGrid=           0
         NMat0=    1 NMatS0=      1 NMatT0=    0 NMatD0=    1 NMtDS0=    0 NMtDT0=    0
 Petite list used in FoFCou.
 Requested convergence on RMS density matrix=1.00D-08 within 128 cycles.
 Requested convergence on MAX density matrix=1.00D-06.
 Requested convergence on             energy=1.00D-06.
 No special actions if energy rises.
 Defaulting to unpruned grid for atomic number  46.
 Defaulting to unpruned grid for atomic number  46.
 Defaulting to unpruned grid for atomic number  46.
 Defaulting to unpruned grid for atomic number  46.
 Defaulting to unpruned grid for atomic number  46.
 Defaulting to unpruned grid for atomic number  46.
 Defaulting to unpruned grid for atomic number  46.
 Defaulting to unpruned grid for atomic number  46.
 Defaulting to unpruned grid for atomic number  46.
 Defaulting to unpruned grid for atomic number  46.
 Defaulting to unpruned grid for atomic number  46.
 Defaulting to unpruned grid for atomic number  46.
 Defaulting to unpruned grid for atomic number  46.
 Defaulting to unpruned grid for atomic number  46.
 Defaulting to unpruned grid for atomic number  46.
 Defaulting to unpruned grid for atomic number  46.
 Defaulting to unpruned grid for atomic number  46.
 Defaulting to unpruned grid for atomic number  46.
 Defaulting to unpruned grid for atomic number  46.
 Defaulting to unpruned grid for atomic number  46.
 EnCoef did   100 forward-backward iterations
 EnCoef did   100 forward-backward iterations
 EnCoef did   100 forward-backward iterations
 Restarting incremental Fock formation.
 SCF Done:  E(RM06) =  -1733.40430028     A.U. after   26 cycles
            NFock= 26  Conv=0.68D-08     -V/T= 2.0551
 DoSCS=F DFT=T ScalE2(SS,OS)=  1.000000  1.000000
 Range of M.O.s used for correlation:     1   681
 NBasis=   684 NAE=   133 NBE=   133 NFC=     0 NFV=     0
 NROrb=    681 NOA=   133 NOB=   133 NVA=   548 NVB=   548

 **** Warning!!: The largest alpha MO coefficient is  0.11336653D+03

   1 Symmetry operations used in ECPInt.
 ECPInt:  NShTT=   29161 NPrTT=  151684 LenC2=   25159 LenP2D=   76540.
 LDataN:  DoStor=T MaxTD1= 6 Len=  172
 Number of processors reduced to   8 by ecpmxn.
 Symmetrizing basis deriv contribution to polar:
 IMax=3 JMax=2 DiffMx= 0.00D+00
 G2DrvN: will do    69 centers at a time, making    1 passes.
 Calling FoFCou, ICntrl=  3107 FMM=T I1Cent=   0 AccDes= 0.00D+00.
 Defaulting to unpruned grid for atomic number  46.
 Defaulting to unpruned grid for atomic number  46.
 Defaulting to unpruned grid for atomic number  46.
 Defaulting to unpruned grid for atomic number  46.
 Defaulting to unpruned grid for atomic number  46.
 Defaulting to unpruned grid for atomic number  46.
 Defaulting to unpruned grid for atomic number  46.
 Defaulting to unpruned grid for atomic number  46.
 Defaulting to unpruned grid for atomic number  46.
 Defaulting to unpruned grid for atomic number  46.
 Defaulting to unpruned grid for atomic number  46.
 Defaulting to unpruned grid for atomic number  46.
 Defaulting to unpruned grid for atomic number  46.
 Defaulting to unpruned grid for atomic number  46.
 Defaulting to unpruned grid for atomic number  46.
 Defaulting to unpruned grid for atomic number  46.
 Defaulting to unpruned grid for atomic number  46.
 Defaulting to unpruned grid for atomic number  46.
 Defaulting to unpruned grid for atomic number  46.
 Defaulting to unpruned grid for atomic number  46.
 End of G2Drv F.D. properties file   721 does not exist.
 End of G2Drv F.D. properties file   722 does not exist.
 End of G2Drv F.D. properties file   788 does not exist.
          IDoAtm=11111111111111111111111111111111111111111111111111
          IDoAtm=111111111111111111
          Differentiating once with respect to nuclear coordinates.
 Defaulting to unpruned grid for atomic number  46.
 CalDSu exits because no D1Ps are significant.
 Defaulting to unpruned grid for atomic number  46.
 Defaulting to unpruned grid for atomic number  46.
 Defaulting to unpruned grid for atomic number  46.
 Defaulting to unpruned grid for atomic number  46.
 Defaulting to unpruned grid for atomic number  46.
 Defaulting to unpruned grid for atomic number  46.
 Defaulting to unpruned grid for atomic number  46.
 Defaulting to unpruned grid for atomic number  46.
 Defaulting to unpruned grid for atomic number  46.
 Defaulting to unpruned grid for atomic number  46.
 Defaulting to unpruned grid for atomic number  46.
 Defaulting to unpruned grid for atomic number  46.
 Defaulting to unpruned grid for atomic number  46.
 Defaulting to unpruned grid for atomic number  46.
 Defaulting to unpruned grid for atomic number  46.
 Defaulting to unpruned grid for atomic number  46.
 Defaulting to unpruned grid for atomic number  46.
 Defaulting to unpruned grid for atomic number  46.
 Defaulting to unpruned grid for atomic number  46.
 Defaulting to unpruned grid for atomic number  46.
          There are   207 degrees of freedom in the 1st order CPHF.  IDoFFX=6 NUNeed=     0.
    204 vectors produced by pass  0 Test12= 7.29D-14 1.00D-09 XBig12= 5.08D-01 1.35D-01.
 AX will form    72 AO Fock derivatives at one time.
    204 vectors produced by pass  1 Test12= 7.29D-14 1.00D-09 XBig12= 2.98D-02 3.11D-02.
    201 vectors produced by pass  2 Test12= 7.29D-14 1.00D-09 XBig12= 4.53D-04 2.61D-03.
    201 vectors produced by pass  3 Test12= 7.29D-14 1.00D-09 XBig12= 2.72D-06 1.43D-04.
    201 vectors produced by pass  4 Test12= 7.29D-14 1.00D-09 XBig12= 1.17D-08 7.39D-06.
    201 vectors produced by pass  5 Test12= 7.29D-14 1.00D-09 XBig12= 4.95D-11 3.87D-07.
    200 vectors produced by pass  6 Test12= 7.29D-14 1.00D-09 XBig12= 1.73D-12 6.29D-08.
    200 vectors produced by pass  7 Test12= 7.29D-14 1.00D-09 XBig12= 2.16D-13 2.11D-08.
    200 vectors produced by pass  8 Test12= 7.29D-14 1.00D-09 XBig12= 7.58D-14 1.47D-08.
    200 vectors produced by pass  9 Test12= 7.29D-14 1.00D-09 XBig12= 1.25D-13 1.28D-08.
    196 vectors produced by pass 10 Test12= 7.29D-14 1.00D-09 XBig12= 7.74D-14 9.48D-09.
    139 vectors produced by pass 11 Test12= 7.29D-14 1.00D-09 XBig12= 3.76D-14 6.16D-09.
    138 vectors produced by pass 12 Test12= 7.29D-14 1.00D-09 XBig12= 6.58D-14 8.25D-09.
    134 vectors produced by pass 13 Test12= 7.29D-14 1.00D-09 XBig12= 3.18D-14 6.52D-09.
     68 vectors produced by pass 14 Test12= 7.29D-14 1.00D-09 XBig12= 1.20D-14 3.98D-09.
     67 vectors produced by pass 15 Test12= 7.29D-14 1.00D-09 XBig12= 1.61D-14 4.30D-09.
     67 vectors produced by pass 16 Test12= 7.29D-14 1.00D-09 XBig12= 1.88D-14 4.61D-09.
     46 vectors produced by pass 17 Test12= 7.29D-14 1.00D-09 XBig12= 7.26D-15 2.75D-09.
     46 vectors produced by pass 18 Test12= 7.29D-14 1.00D-09 XBig12= 1.43D-14 3.91D-09.
     45 vectors produced by pass 19 Test12= 7.29D-14 1.00D-09 XBig12= 7.75D-15 3.21D-09.
     45 vectors produced by pass 20 Test12= 7.29D-14 1.00D-09 XBig12= 1.24D-14 3.59D-09.
     45 vectors produced by pass 21 Test12= 7.29D-14 1.00D-09 XBig12= 1.47D-14 3.95D-09.
     35 vectors produced by pass 22 Test12= 7.29D-14 1.00D-09 XBig12= 6.38D-15 2.30D-09.
     35 vectors produced by pass 23 Test12= 7.29D-14 1.00D-09 XBig12= 7.99D-15 2.63D-09.
     35 vectors produced by pass 24 Test12= 7.29D-14 1.00D-09 XBig12= 6.79D-15 2.61D-09.
     35 vectors produced by pass 25 Test12= 7.29D-14 1.00D-09 XBig12= 1.10D-14 3.72D-09.
     35 vectors produced by pass 26 Test12= 7.29D-14 1.00D-09 XBig12= 7.63D-15 2.61D-09.
     34 vectors produced by pass 27 Test12= 7.29D-14 1.00D-09 XBig12= 7.88D-15 2.41D-09.
     30 vectors produced by pass 28 Test12= 7.29D-14 1.00D-09 XBig12= 4.65D-15 1.92D-09.
     30 vectors produced by pass 29 Test12= 7.29D-14 1.00D-09 XBig12= 7.73D-15 2.58D-09.
     28 vectors produced by pass 30 Test12= 7.29D-14 1.00D-09 XBig12= 4.23D-15 1.96D-09.
     28 vectors produced by pass 31 Test12= 7.29D-14 1.00D-09 XBig12= 9.44D-15 2.91D-09.
     24 vectors produced by pass 32 Test12= 7.29D-14 1.00D-09 XBig12= 3.96D-15 1.93D-09.
     24 vectors produced by pass 33 Test12= 7.29D-14 1.00D-09 XBig12= 4.72D-15 2.25D-09.
     24 vectors produced by pass 34 Test12= 7.29D-14 1.00D-09 XBig12= 4.67D-15 1.91D-09.
     24 vectors produced by pass 35 Test12= 7.29D-14 1.00D-09 XBig12= 1.01D-14 3.13D-09.
      2 vectors produced by pass 36 Test12= 7.29D-14 1.00D-09 XBig12= 1.60D-15 1.11D-09.
 InvSVY:  IOpt=1 It=  1 EMax= 1.22D-15
 Solved reduced A of dimension  3471 with   207 vectors.
 End of Minotr F.D. properties file   721 does not exist.
 End of Minotr F.D. properties file   722 does not exist.
 End of Minotr F.D. properties file   788 does not exist.

 **********************************************************************

            Population analysis using the SCF density.

 **********************************************************************

 Orbital symmetries:
       Occupied  (A) (A) (A) (A) (A) (A) (A) (A) (A) (A) (A) (A)
                 (A) (A) (A) (A) (A) (A) (A) (A) (A) (A) (A) (A)
                 (A) (A) (A) (A) (A) (A) (A) (A) (A) (A) (A) (A)
                 (A) (A) (A) (A) (A) (A) (A) (A) (A) (A) (A) (A)
                 (A) (A) (A) (A) (A) (A) (A) (A) (A) (A) (A) (A)
                 (A) (A) (A) (A) (A) (A) (A) (A) (A) (A) (A) (A)
                 (A) (A) (A) (A) (A) (A) (A) (A) (A) (A) (A) (A)
                 (A) (A) (A) (A) (A) (A) (A) (A) (A) (A) (A) (A)
                 (A) (A) (A) (A) (A) (A) (A) (A) (A) (A) (A) (A)
                 (A) (A) (A) (A) (A) (A) (A) (A) (A) (A) (A) (A)
                 (A) (A) (A) (A) (A) (A) (A) (A) (A) (A) (A) (A)
                 (A)
       Virtual   (A) (A) (A) (A) (A) (A) (A) (A) (A) (A) (A) (A)
                 (A) (A) (A) (A) (A) (A) (A) (A) (A) (A) (A) (A)
                 (A) (A) (A) (A) (A) (A) (A) (A) (A) (A) (A) (A)
                 (A) (A) (A) (A) (A) (A) (A) (A) (A) (A) (A) (A)
                 (A) (A) (A) (A) (A) (A) (A) (A) (A) (A) (A) (A)
                 (A) (A) (A) (A) (A) (A) (A) (A) (A) (A) (A) (A)
                 (A) (A) (A) (A) (A) (A) (A) (A) (A) (A) (A) (A)
                 (A) (A) (A) (A) (A) (A) (A) (A) (A) (A) (A) (A)
                 (A) (A) (A) (A) (A) (A) (A) (A) (A) (A) (A) (A)
                 (A) (A) (A) (A) (A) (A) (A) (A) (A) (A) (A) (A)
                 (A) (A) (A) (A) (A) (A) (A) (A) (A) (A) (A) (A)
                 (A) (A) (A) (A) (A) (A) (A) (A) (A) (A) (A) (A)
                 (A) (A) (A) (A) (A) (A) (A) (A) (A) (A) (A) (A)
                 (A) (A) (A) (A) (A) (A) (A) (A) (A) (A) (A) (A)
                 (A) (A) (A) (A) (A) (A) (A) (A) (A) (A) (A) (A)
                 (A) (A) (A) (A) (A) (A) (A) (A) (A) (A) (A) (A)
                 (A) (A) (A) (A) (A) (A) (A) (A) (A) (A) (A) (A)
                 (A) (A) (A) (A) (A) (A) (A) (A) (A) (A) (A) (A)
                 (A) (A) (A) (A) (A) (A) (A) (A) (A) (A) (A) (A)
                 (A) (A) (A) (A) (A) (A) (A) (A) (A) (A) (A) (A)
                 (A) (A) (A) (A) (A) (A) (A) (A) (A) (A) (A) (A)
                 (A) (A) (A) (A) (A) (A) (A) (A) (A) (A) (A) (A)
                 (A) (A) (A) (A) (A) (A) (A) (A) (A) (A) (A) (A)
                 (A) (A) (A) (A) (A) (A) (A) (A) (A) (A) (A) (A)
                 (A) (A) (A) (A) (A) (A) (A) (A) (A) (A) (A) (A)
                 (A) (A) (A) (A) (A) (A) (A) (A) (A) (A) (A) (A)
                 (A) (A) (A) (A) (A) (A) (A) (A) (A) (A) (A) (A)
                 (A) (A) (A) (A) (A) (A) (A) (A) (A) (A) (A) (A)
                 (A) (A) (A) (A) (A) (A) (A) (A) (A) (A) (A) (A)
                 (A) (A) (A) (A) (A) (A) (A) (A) (A) (A) (A) (A)
                 (A) (A) (A) (A) (A) (A) (A) (A) (A) (A) (A) (A)
                 (A) (A) (A) (A) (A) (A) (A) (A) (A) (A) (A) (A)
                 (A) (A) (A) (A) (A) (A) (A) (A) (A) (A) (A) (A)
                 (A) (A) (A) (A) (A) (A) (A) (A) (A) (A) (A) (A)
                 (A) (A) (A) (A) (A) (A) (A) (A) (A) (A) (A) (A)
                 (A) (A) (A) (A) (A) (A) (A) (A) (A) (A) (A) (A)
                 (A) (A) (A) (A) (A) (A) (A) (A) (A) (A) (A) (A)
                 (A) (A) (A) (A) (A) (A) (A) (A) (A) (A) (A) (A)
                 (A) (A) (A) (A) (A) (A) (A) (A) (A) (A) (A) (A)
                 (A) (A) (A) (A) (A) (A) (A) (A) (A) (A) (A) (A)
                 (A) (A) (A) (A) (A) (A) (A) (A) (A) (A) (A) (A)
                 (A) (A) (A) (A) (A) (A) (A) (A) (A) (A) (A) (A)
                 (A) (A) (A) (A) (A) (A) (A) (A) (A) (A) (A) (A)
                 (A) (A) (A) (A) (A) (A) (A) (A) (A) (A) (A) (A)
                 (A) (A) (A) (A) (A) (A) (A) (A) (A) (A) (A) (A)
                 (A) (A) (A) (A) (A) (A) (A) (A)
 The electronic state is 1-A.
 Alpha  occ. eigenvalues --  -24.94962 -24.94579 -24.94363 -19.42394 -19.34914
 Alpha  occ. eigenvalues --  -19.32073 -14.59226 -14.56006 -10.63193 -10.50648
 Alpha  occ. eigenvalues --  -10.46366 -10.45063 -10.44109 -10.44073 -10.42855
 Alpha  occ. eigenvalues --  -10.42798 -10.42767 -10.42241 -10.42041 -10.41970
 Alpha  occ. eigenvalues --  -10.41149 -10.40643 -10.38161 -10.37787 -10.37294
 Alpha  occ. eigenvalues --  -10.36567 -10.36139 -10.35766 -10.35092 -10.34617
 Alpha  occ. eigenvalues --  -10.34445 -10.34433 -10.34404  -3.46950  -2.21258
 Alpha  occ. eigenvalues --   -2.21099  -2.18048  -1.47363  -1.38886  -1.38410
 Alpha  occ. eigenvalues --   -1.27700  -1.16821  -1.15947  -1.13654  -1.07730
 Alpha  occ. eigenvalues --   -0.99102  -0.97790  -0.97315  -0.95922  -0.94772
 Alpha  occ. eigenvalues --   -0.90228  -0.89960  -0.87761  -0.86033  -0.84909
 Alpha  occ. eigenvalues --   -0.82336  -0.81492  -0.81018  -0.80737  -0.80141
 Alpha  occ. eigenvalues --   -0.80057  -0.78267  -0.77735  -0.74048  -0.73179
 Alpha  occ. eigenvalues --   -0.73107  -0.72672  -0.72270  -0.71080  -0.69628
 Alpha  occ. eigenvalues --   -0.67579  -0.66287  -0.66182  -0.65615  -0.64637
 Alpha  occ. eigenvalues --   -0.62627  -0.61676  -0.61155  -0.60870  -0.60600
 Alpha  occ. eigenvalues --   -0.60409  -0.59994  -0.59825  -0.59482  -0.59223
 Alpha  occ. eigenvalues --   -0.58123  -0.57895  -0.57459  -0.56952  -0.56512
 Alpha  occ. eigenvalues --   -0.56452  -0.56151  -0.55885  -0.55679  -0.54629
 Alpha  occ. eigenvalues --   -0.54459  -0.54182  -0.53891  -0.53275  -0.52940
 Alpha  occ. eigenvalues --   -0.52239  -0.52200  -0.52106  -0.51669  -0.51623
 Alpha  occ. eigenvalues --   -0.51416  -0.51073  -0.50358  -0.49724  -0.49518
 Alpha  occ. eigenvalues --   -0.49404  -0.49069  -0.48505  -0.48299  -0.48124
 Alpha  occ. eigenvalues --   -0.47506  -0.46911  -0.46592  -0.46197  -0.45162
 Alpha  occ. eigenvalues --   -0.45015  -0.44806  -0.43570  -0.43287  -0.43157
 Alpha  occ. eigenvalues --   -0.41827  -0.41303  -0.40765  -0.39970  -0.38781
 Alpha  occ. eigenvalues --   -0.37820  -0.36149  -0.35530
 Alpha virt. eigenvalues --   -0.21024  -0.18268  -0.17714  -0.16648  -0.13308
 Alpha virt. eigenvalues --   -0.12326  -0.12131  -0.11413  -0.10645  -0.10497
 Alpha virt. eigenvalues --   -0.10309  -0.09971  -0.09803  -0.09668  -0.09473
 Alpha virt. eigenvalues --   -0.08842  -0.08379  -0.08148  -0.07954  -0.07830
 Alpha virt. eigenvalues --   -0.07327  -0.07212  -0.06554  -0.06301  -0.06148
 Alpha virt. eigenvalues --   -0.05800  -0.05715  -0.05365  -0.05330  -0.05140
 Alpha virt. eigenvalues --   -0.04869  -0.04521  -0.03957  -0.03820  -0.03598
 Alpha virt. eigenvalues --   -0.03367  -0.03085  -0.02731  -0.02590  -0.02394
 Alpha virt. eigenvalues --   -0.02251  -0.01885  -0.01740  -0.01545  -0.01422
 Alpha virt. eigenvalues --   -0.01219  -0.00980  -0.00610  -0.00487  -0.00090
 Alpha virt. eigenvalues --    0.00099   0.00395   0.00545   0.00729   0.01203
 Alpha virt. eigenvalues --    0.01412   0.01507   0.01568   0.01908   0.02264
 Alpha virt. eigenvalues --    0.02328   0.02485   0.02841   0.02950   0.03185
 Alpha virt. eigenvalues --    0.03281   0.03895   0.04021   0.04186   0.04643
 Alpha virt. eigenvalues --    0.04759   0.04932   0.04944   0.05096   0.05609
 Alpha virt. eigenvalues --    0.05785   0.05906   0.06140   0.06239   0.06634
 Alpha virt. eigenvalues --    0.06996   0.07076   0.07277   0.07460   0.07753
 Alpha virt. eigenvalues --    0.07919   0.08116   0.08337   0.08476   0.08774
 Alpha virt. eigenvalues --    0.08818   0.09100   0.09344   0.09376   0.09506
 Alpha virt. eigenvalues --    0.09619   0.09892   0.10290   0.10476   0.10741
 Alpha virt. eigenvalues --    0.10800   0.11101   0.11124   0.11541   0.11701
 Alpha virt. eigenvalues --    0.11835   0.11920   0.12107   0.12438   0.12477
 Alpha virt. eigenvalues --    0.12609   0.12968   0.13107   0.13237   0.13595
 Alpha virt. eigenvalues --    0.13606   0.13869   0.14039   0.14280   0.14601
 Alpha virt. eigenvalues --    0.14689   0.14818   0.15204   0.15338   0.15427
 Alpha virt. eigenvalues --    0.15829   0.16058   0.16247   0.16442   0.16727
 Alpha virt. eigenvalues --    0.16841   0.16998   0.17590   0.17649   0.18017
 Alpha virt. eigenvalues --    0.18192   0.18294   0.18402   0.18611   0.18956
 Alpha virt. eigenvalues --    0.19236   0.19511   0.19581   0.19870   0.20094
 Alpha virt. eigenvalues --    0.20480   0.20715   0.21148   0.21559   0.21827
 Alpha virt. eigenvalues --    0.22111   0.22286   0.22468   0.22646   0.23000
 Alpha virt. eigenvalues --    0.23176   0.23372   0.23656   0.24229   0.24366
 Alpha virt. eigenvalues --    0.24730   0.25090   0.25492   0.25578   0.25857
 Alpha virt. eigenvalues --    0.26330   0.26560   0.26833   0.27305   0.27324
 Alpha virt. eigenvalues --    0.27456   0.27777   0.27836   0.28340   0.28574
 Alpha virt. eigenvalues --    0.29003   0.29156   0.29294   0.29792   0.30227
 Alpha virt. eigenvalues --    0.30493   0.30870   0.31292   0.31424   0.31696
 Alpha virt. eigenvalues --    0.32176   0.32256   0.32527   0.33065   0.34176
 Alpha virt. eigenvalues --    0.34934   0.35096   0.35550   0.35748   0.36181
 Alpha virt. eigenvalues --    0.36646   0.37085   0.37432   0.38205   0.38539
 Alpha virt. eigenvalues --    0.39088   0.39850   0.40927   0.41077   0.42660
 Alpha virt. eigenvalues --    0.42877   0.43619   0.45720   0.48642   0.49371
 Alpha virt. eigenvalues --    0.49849   0.51895   0.54163   0.54849   0.55219
 Alpha virt. eigenvalues --    0.55860   0.57145   0.57931   0.58041   0.58544
 Alpha virt. eigenvalues --    0.59098   0.59729   0.60554   0.60837   0.61125
 Alpha virt. eigenvalues --    0.61641   0.62196   0.62466   0.63124   0.63236
 Alpha virt. eigenvalues --    0.63731   0.64081   0.64586   0.64793   0.65074
 Alpha virt. eigenvalues --    0.65258   0.65479   0.66098   0.66329   0.66647
 Alpha virt. eigenvalues --    0.67113   0.67472   0.68113   0.68398   0.68917
 Alpha virt. eigenvalues --    0.69377   0.70016   0.70218   0.70904   0.71440
 Alpha virt. eigenvalues --    0.71890   0.72375   0.72883   0.73259   0.73814
 Alpha virt. eigenvalues --    0.73929   0.74566   0.75034   0.75726   0.76387
 Alpha virt. eigenvalues --    0.76863   0.77545   0.78754   0.78927   0.79422
 Alpha virt. eigenvalues --    0.79736   0.80624   0.81135   0.81536   0.82193
 Alpha virt. eigenvalues --    0.82491   0.83321   0.83917   0.84837   0.85316
 Alpha virt. eigenvalues --    0.85463   0.85767   0.86837   0.87084   0.88102
 Alpha virt. eigenvalues --    0.88534   0.89170   0.89621   0.89806   0.90713
 Alpha virt. eigenvalues --    0.91267   0.91521   0.92177   0.92655   0.93186
 Alpha virt. eigenvalues --    0.93649   0.94114   0.94368   0.95501   0.95540
[...]
                 (A) (A) (A) (A) (A) (A) (A) (A) (A) (A) (A) (A)
                 (A) (A) (A) (A) (A) (A) (A) (A) (A) (A) (A) (A)
                 (A) (A) (A) (A) (A) (A) (A) (A) (A) (A) (A) (A)
                 (A) (A) (A) (A) (A) (A) (A) (A) (A) (A) (A) (A)
                 (A) (A) (A) (A) (A) (A) (A) (A) (A) (A) (A) (A)
                 (A) (A) (A) (A) (A) (A) (A) (A) (A) (A) (A) (A)
                 (A) (A) (A) (A) (A) (A) (A) (A) (A) (A) (A) (A)
                 (A) (A) (A) (A) (A) (A) (A) (A) (A) (A) (A) (A)
                 (A) (A) (A) (A) (A) (A) (A) (A) (A) (A) (A) (A)
                 (A) (A) (A) (A) (A) (A) (A) (A) (A) (A) (A) (A)
                 (A) (A) (A) (A) (A) (A) (A) (A) (A) (A) (A) (A)
                 (A) (A) (A) (A) (A) (A) (A) (A) (A) (A) (A) (A)
                 (A) (A) (A) (A) (A) (A) (A) (A) (A) (A) (A) (A)
                 (A) (A) (A) (A) (A) (A) (A) (A) (A) (A) (A) (A)
                 (A) (A) (A) (A) (A) (A) (A) (A) (A) (A) (A) (A)
                 (A) (A) (A) (A) (A) (A) (A) (A) (A) (A) (A) (A)
                 (A) (A) (A) (A) (A) (A) (A) (A) (A) (A) (A) (A)
                 (A) (A) (A) (A) (A) (A) (A) (A) (A) (A) (A) (A)
                 (A) (A) (A) (A) (A) (A) (A) (A) (A) (A) (A) (A)
                 (A) (A) (A) (A) (A) (A) (A) (A) (A) (A) (A) (A)
                 (A) (A) (A) (A) (A) (A) (A) (A) (A) (A) (A) (A)
                 (A) (A) (A) (A) (A) (A) (A) (A)
 The electronic state is 1-A.
 Alpha  occ. eigenvalues --  -24.94975 -24.94588 -24.94379 -19.42404 -19.34920
 Alpha  occ. eigenvalues --  -19.32034 -14.59264 -14.56006 -10.63207 -10.50658
 Alpha  occ. eigenvalues --  -10.46388 -10.45080 -10.44082 -10.44079 -10.42871
 Alpha  occ. eigenvalues --  -10.42815 -10.42760 -10.42250 -10.42055 -10.41987
 Alpha  occ. eigenvalues --  -10.41131 -10.40662 -10.38170 -10.37720 -10.37302
 Alpha  occ. eigenvalues --  -10.36578 -10.36153 -10.35764 -10.35077 -10.34595
 Alpha  occ. eigenvalues --  -10.34452 -10.34442 -10.34412  -3.47011  -2.21311
 Alpha  occ. eigenvalues --   -2.21177  -2.18096  -1.47376  -1.38899  -1.38423
 Alpha  occ. eigenvalues --   -1.27710  -1.16826  -1.15911  -1.13679  -1.07739
 Alpha  occ. eigenvalues --   -0.99120  -0.97782  -0.97329  -0.95941  -0.94783
 Alpha  occ. eigenvalues --   -0.90239  -0.89939  -0.87770  -0.86049  -0.84908
 Alpha  occ. eigenvalues --   -0.82355  -0.81508  -0.81029  -0.80747  -0.80135
 Alpha  occ. eigenvalues --   -0.80054  -0.78277  -0.77754  -0.74065  -0.73192
 Alpha  occ. eigenvalues --   -0.73119  -0.72688  -0.72263  -0.71058  -0.69637
 Alpha  occ. eigenvalues --   -0.67588  -0.66303  -0.66199  -0.65621  -0.64647
 Alpha  occ. eigenvalues --   -0.62637  -0.61665  -0.61165  -0.60885  -0.60614
 Alpha  occ. eigenvalues --   -0.60422  -0.60000  -0.59828  -0.59487  -0.59243
 Alpha  occ. eigenvalues --   -0.58136  -0.57906  -0.57467  -0.56965  -0.56520
 Alpha  occ. eigenvalues --   -0.56465  -0.56165  -0.55893  -0.55665  -0.54624
 Alpha  occ. eigenvalues --   -0.54472  -0.54191  -0.53897  -0.53265  -0.52951
 Alpha  occ. eigenvalues --   -0.52248  -0.52211  -0.52114  -0.51677  -0.51607
 Alpha  occ. eigenvalues --   -0.51422  -0.51090  -0.50353  -0.49733  -0.49517
 Alpha  occ. eigenvalues --   -0.49415  -0.49079  -0.48512  -0.48314  -0.48122
 Alpha  occ. eigenvalues --   -0.47506  -0.46908  -0.46594  -0.46214  -0.45171
 Alpha  occ. eigenvalues --   -0.45014  -0.44810  -0.43584  -0.43287  -0.43209
 Alpha  occ. eigenvalues --   -0.41839  -0.41335  -0.40774  -0.40016  -0.38814
 Alpha  occ. eigenvalues --   -0.37837  -0.36153  -0.35501
 Alpha virt. eigenvalues --   -0.21040  -0.18168  -0.17732  -0.16696  -0.13317
 Alpha virt. eigenvalues --   -0.12331  -0.12136  -0.11418  -0.10676  -0.10520
 Alpha virt. eigenvalues --   -0.10315  -0.09986  -0.09852  -0.09674  -0.09485
 Alpha virt. eigenvalues --   -0.08847  -0.08382  -0.08150  -0.07960  -0.07837
 Alpha virt. eigenvalues --   -0.07331  -0.07217  -0.06562  -0.06306  -0.06157
 Alpha virt. eigenvalues --   -0.05800  -0.05714  -0.05366  -0.05333  -0.05146
 Alpha virt. eigenvalues --   -0.04872  -0.04523  -0.03960  -0.03823  -0.03604
 Alpha virt. eigenvalues --   -0.03375  -0.03089  -0.02732  -0.02589  -0.02399
 Alpha virt. eigenvalues --   -0.02260  -0.01897  -0.01746  -0.01547  -0.01431
 Alpha virt. eigenvalues --   -0.01226  -0.00984  -0.00616  -0.00488  -0.00081
 Alpha virt. eigenvalues --    0.00094   0.00390   0.00540   0.00730   0.01201
 Alpha virt. eigenvalues --    0.01406   0.01503   0.01565   0.01897   0.02253
 Alpha virt. eigenvalues --    0.02323   0.02474   0.02838   0.02943   0.03185
 Alpha virt. eigenvalues --    0.03278   0.03891   0.04009   0.04173   0.04628
 Alpha virt. eigenvalues --    0.04758   0.04931   0.04951   0.05093   0.05618
 Alpha virt. eigenvalues --    0.05782   0.05909   0.06129   0.06218   0.06627
 Alpha virt. eigenvalues --    0.06999   0.07079   0.07274   0.07459   0.07740
 Alpha virt. eigenvalues --    0.07914   0.08103   0.08341   0.08473   0.08766
 Alpha virt. eigenvalues --    0.08817   0.09088   0.09335   0.09377   0.09504
 Alpha virt. eigenvalues --    0.09615   0.09883   0.10291   0.10467   0.10739
 Alpha virt. eigenvalues --    0.10798   0.11099   0.11124   0.11543   0.11704
 Alpha virt. eigenvalues --    0.11834   0.11914   0.12103   0.12425   0.12466
 Alpha virt. eigenvalues --    0.12612   0.12953   0.13095   0.13237   0.13586
 Alpha virt. eigenvalues --    0.13603   0.13867   0.14034   0.14279   0.14597
 Alpha virt. eigenvalues --    0.14684   0.14817   0.15206   0.15332   0.15422
 Alpha virt. eigenvalues --    0.15829   0.16056   0.16237   0.16436   0.16716
 Alpha virt. eigenvalues --    0.16845   0.16993   0.17595   0.17644   0.18014
 Alpha virt. eigenvalues --    0.18194   0.18293   0.18399   0.18593   0.18961
 Alpha virt. eigenvalues --    0.19222   0.19513   0.19570   0.19863   0.20087
 Alpha virt. eigenvalues --    0.20477   0.20722   0.21149   0.21556   0.21816
 Alpha virt. eigenvalues --    0.22112   0.22288   0.22460   0.22642   0.22990
 Alpha virt. eigenvalues --    0.23185   0.23369   0.23670   0.24225   0.24354
 Alpha virt. eigenvalues --    0.24736   0.25084   0.25497   0.25571   0.25846
 Alpha virt. eigenvalues --    0.26306   0.26572   0.26858   0.27311   0.27346
 Alpha virt. eigenvalues --    0.27441   0.27778   0.27827   0.28360   0.28557
 Alpha virt. eigenvalues --    0.28995   0.29168   0.29290   0.29791   0.30210
 Alpha virt. eigenvalues --    0.30494   0.30869   0.31276   0.31422   0.31689
 Alpha virt. eigenvalues --    0.32180   0.32243   0.32517   0.33066   0.34192
 Alpha virt. eigenvalues --    0.34932   0.35083   0.35578   0.35762   0.36200
 Alpha virt. eigenvalues --    0.36645   0.37068   0.37426   0.38190   0.38532
 Alpha virt. eigenvalues --    0.39094   0.39883   0.40914   0.41072   0.42690
 Alpha virt. eigenvalues --    0.42886   0.43639   0.45736   0.48622   0.49383
 Alpha virt. eigenvalues --    0.49830   0.51870   0.54176   0.54841   0.55238
 Alpha virt. eigenvalues --    0.55841   0.57157   0.57901   0.58018   0.58516
 Alpha virt. eigenvalues --    0.59109   0.59728   0.60551   0.60824   0.61129
 Alpha virt. eigenvalues --    0.61609   0.62178   0.62459   0.63112   0.63245
 Alpha virt. eigenvalues --    0.63746   0.64067   0.64606   0.64785   0.65086
 Alpha virt. eigenvalues --    0.65232   0.65466   0.66090   0.66350   0.66642
 Alpha virt. eigenvalues --    0.67125   0.67458   0.68124   0.68403   0.68916
 Alpha virt. eigenvalues --    0.69367   0.70025   0.70244   0.70884   0.71439
 Alpha virt. eigenvalues --    0.71866   0.72370   0.72886   0.73264   0.73777
 Alpha virt. eigenvalues --    0.73924   0.74551   0.75037   0.75719   0.76388
 Alpha virt. eigenvalues --    0.76873   0.77565   0.78721   0.78960   0.79421
 Alpha virt. eigenvalues --    0.79749   0.80620   0.81119   0.81549   0.82187
 Alpha virt. eigenvalues --    0.82456   0.83327   0.83907   0.84835   0.85330
 Alpha virt. eigenvalues --    0.85439   0.85764   0.86811   0.87105   0.88106
 Alpha virt. eigenvalues --    0.88521   0.89197   0.89609   0.89810   0.90694
 Alpha virt. eigenvalues --    0.91247   0.91516   0.92151   0.92633   0.93187
 Alpha virt. eigenvalues --    0.93652   0.94085   0.94354   0.95508   0.95538
 Alpha virt. eigenvalues --    0.96171   0.96317   0.97004   0.97563   0.98150
 Alpha virt. eigenvalues --    0.98611   0.99366   0.99704   1.00224   1.00373
 Alpha virt. eigenvalues --    1.00755   1.01551   1.02156   1.02929   1.03433
 Alpha virt. eigenvalues --    1.04385   1.04531   1.04784   1.05263   1.05752
 Alpha virt. eigenvalues --    1.06403   1.06879   1.07288   1.07787   1.07987
 Alpha virt. eigenvalues --    1.08686   1.09921   1.10070   1.10756   1.11221
 Alpha virt. eigenvalues --    1.11981   1.12292   1.13284   1.14367   1.15289
 Alpha virt. eigenvalues --    1.15477   1.16383   1.17529   1.18626   1.19809
 Alpha virt. eigenvalues --    1.20330   1.21149   1.21855   1.23321   1.23779
 Alpha virt. eigenvalues --    1.24371   1.25171   1.25907   1.26323   1.28348
 Alpha virt. eigenvalues --    1.28862   1.29986   1.30113   1.30381   1.31349
 Alpha virt. eigenvalues --    1.32379   1.32878   1.33434   1.34583   1.34778
 Alpha virt. eigenvalues --    1.35788   1.35919   1.37374   1.37829   1.39111
 Alpha virt. eigenvalues --    1.40378   1.40727   1.41666   1.42772   1.43276
 Alpha virt. eigenvalues --    1.44244   1.45894   1.46982   1.47653   1.48627
 Alpha virt. eigenvalues --    1.49108   1.50611   1.51077   1.51663   1.51834
 Alpha virt. eigenvalues --    1.52692   1.52890   1.53544   1.54828   1.55652
 Alpha virt. eigenvalues --    1.56472   1.57058   1.57748   1.58202   1.58468
 Alpha virt. eigenvalues --    1.59020   1.59492   1.60141   1.60681   1.61515
 Alpha virt. eigenvalues --    1.61715   1.64273   1.64604   1.65294   1.65922
 Alpha virt. eigenvalues --    1.66218   1.66706   1.67100   1.68627   1.69027
 Alpha virt. eigenvalues --    1.70168   1.70703   1.71265   1.71657   1.72069
 Alpha virt. eigenvalues --    1.72729   1.73317   1.73539   1.74095   1.75050
 Alpha virt. eigenvalues --    1.75500   1.76201   1.76406   1.77241   1.77527
 Alpha virt. eigenvalues --    1.77891   1.78067   1.78964   1.79136   1.80254
 Alpha virt. eigenvalues --    1.81039   1.81907   1.81989   1.82724   1.82868
 Alpha virt. eigenvalues --    1.83842   1.85107   1.85736   1.86648   1.87046
 Alpha virt. eigenvalues --    1.87878   1.88124   1.90528   1.91048   1.91239
 Alpha virt. eigenvalues --    1.91609   1.92310   1.93948   1.94502   1.94907
 Alpha virt. eigenvalues --    1.95656   1.95694   1.96265   1.96826   1.97445
 Alpha virt. eigenvalues --    1.97530   1.98186   1.98531   1.98960   1.99584
 Alpha virt. eigenvalues --    1.99865   2.00647   2.01457   2.01874   2.02481
 Alpha virt. eigenvalues --    2.03027   2.03703   2.05157   2.06107   2.06470
 Alpha virt. eigenvalues --    2.07159   2.07860   2.08753   2.09307   2.09479
 Alpha virt. eigenvalues --    2.09766   2.10936   2.11261   2.11665   2.12261
 Alpha virt. eigenvalues --    2.13075   2.13783   2.13981   2.14520   2.15260
 Alpha virt. eigenvalues --    2.16244   2.17107   2.17366   2.18050   2.18396
 Alpha virt. eigenvalues --    2.18561   2.19940   2.20357   2.21613   2.22923
 Alpha virt. eigenvalues --    2.24728   2.25088   2.25492   2.26459   2.27739
 Alpha virt. eigenvalues --    2.27885   2.30176   2.32031   2.33979   2.35618
 Alpha virt. eigenvalues --    2.36443   2.37620   2.37848   2.38760   2.39141
 Alpha virt. eigenvalues --    2.39319   2.40506   2.41191   2.43128   2.43626
 Alpha virt. eigenvalues --    2.45277   2.46605   2.47510   2.50306   2.50898
 Alpha virt. eigenvalues --    2.52626   2.54496   2.55153   2.56126   2.56711
 Alpha virt. eigenvalues --    2.57331   2.59496   2.60627   2.63662   2.65035
 Alpha virt. eigenvalues --    2.66718   2.67753   2.68079   2.68618   2.70481
 Alpha virt. eigenvalues --    2.70887   2.71634   2.72959   2.74256   2.76715
 Alpha virt. eigenvalues --    2.78226   2.79729   2.81110   2.82659   2.85002
 Alpha virt. eigenvalues --    2.89653   2.91956   2.96917   2.97470   3.00354
 Alpha virt. eigenvalues --    3.04857   3.05963   3.12714   3.13561   3.15875
 Alpha virt. eigenvalues --    3.23706   3.29128  21.35025
          Condensed to atoms (all electrons):
 Mulliken charges:
               1
     1  C   -0.210995
     2  C   -0.350931
     3  C    0.336306
     4  C   -1.236104
     5  C    0.423200
     6  C   -0.405533
     7  O   -0.300093
     8  C   -0.243088
     9  H    0.261633
    10  H    0.267443
    11  H    0.215079
    12  H    0.248270
    13  H    0.259499
    14  H    0.221356
    15  H    0.228521
    16  H    0.217337
    17  H    0.239065
    18  C   -0.362919
    19  H    0.235015
    20  H    0.227851
    21  H    0.277964
    22  C   -0.326764
    23  C   -0.456397
    24  C    0.199077
    25  C   -0.589139
    26  H    0.250550
    27  H    0.275821
    28  H    0.232901
    29  H    0.253651
    30  H    0.172322
    31  H    0.213395
    32  O   -0.630352
    33  H    0.529008
    34  Pd  -0.438243
    35  C   -0.153453
    36  C   -0.296079
    37  C    0.046649
    38  C   -0.826626
    39  C    1.728687
    40  C   -0.299689
    41  N    0.241968
    42  H    0.269700
    43  H    0.268485
    44  H    0.241592
    45  C   -0.129189
    46  O   -0.236326
    47  N   -0.013685
    48  C   -0.230755
    49  H    0.236318
    50  H    0.240270
    51  C    0.072539
    52  C   -0.917029
    53  H    0.210057
    54  F   -0.254306
    55  F   -0.315256
    56  F   -0.232775
    57  C   -0.408353
    58  H    0.237294
    59  H    0.198702
    60  H    0.227008
    61  C   -0.202703
    62  H    0.228883
    63  H    0.240948
    64  H    0.226270
    65  C   -0.322084
    66  H    0.243287
    67  H    0.217928
    68  H    0.227015
 Sum of Mulliken charges =   1.00000
 Mulliken charges with hydrogens summed into heavy atoms:
               1
     1  C    0.296774
     2  C    0.098946
     3  C    0.792708
     4  C   -1.236104
     5  C    0.423200
     6  C   -0.405533
     7  O   -0.300093
     8  C    0.501067
    18  C    0.377912
    22  C   -0.326764
    23  C   -0.202746
    24  C    0.584795
    25  C    0.170133
    32  O   -0.101344
    34  Pd  -0.438243
    35  C   -0.153453
    36  C   -0.027594
    37  C    0.316348
    38  C   -0.826626
    39  C    1.728687
    40  C   -0.058097
    41  N    0.241968
    45  C   -0.129189
    46  O   -0.236326
    47  N   -0.013685
    48  C    0.245832
    51  C    0.282595
    52  C   -0.917029
    54  F   -0.254306
    55  F   -0.315256
    56  F   -0.232775
    57  C    0.254651
    61  C    0.493399
    65  C    0.366147
 Electronic spatial extent (au):  <R**2>=          16035.3438
 Charge=              1.0000 electrons
 Dipole moment (field-independent basis, Debye):
    X=              7.6134    Y=             -1.8958    Z=             -4.0868  Tot=              8.8465
 Quadrupole moment (field-independent basis, Debye-Ang):
   XX=           -176.5498   YY=           -168.4283   ZZ=           -205.6126
   XY=             -2.5444   XZ=             16.3171   YZ=             -0.7496
 Traceless Quadrupole moment (field-independent basis, Debye-Ang):
   XX=              6.9804   YY=             15.1019   ZZ=            -22.0823
   XY=             -2.5444   XZ=             16.3171   YZ=             -0.7496
 Octapole moment (field-independent basis, Debye-Ang**2):
  XXX=            193.1069  YYY=            -25.0707  ZZZ=            -12.3202  XYY=              7.6117
  XXY=            -31.3841  XXZ=            -37.0565  XZZ=             41.0602  YZZ=              2.0329
  YYZ=            -42.5031  XYZ=             36.5117
 Hexadecapole moment (field-independent basis, Debye-Ang**3):
 XXXX=         -10260.2500 YYYY=          -7018.0569 ZZZZ=          -1848.8223 XXXY=            128.6767
 XXXZ=            290.7103 YYYX=            245.5504 YYYZ=             68.2035 ZZZX=             10.8895
 ZZZY=            -25.5673 XXYY=          -2797.0725 XXZZ=          -2086.2305 YYZZ=          -1523.4734
 XXYZ=            -21.2357 YYXZ=            136.4775 ZZXY=            107.9144
 N-N= 4.336862115440D+03 E-N=-1.266590029096D+04  KE= 1.642830852669D+03
 1\1\GINC-NXT1318\FTS\RM06\GenECP\C25H34F3N2O3Pd1(1+)\ROOT\24-Feb-2018\
 0\\#M06/genecp denfit opt=(calcfc,ts,maxcyc=1000)\\step 3 (attempt 1) 
 cycle 1\\1,1\C,-3.8674097517,2.4724803513,-0.3542121688\C,-2.950276698
 2,2.8719988228,-1.4966159822\C,-1.7023831151,1.9924712029,-1.500453395
 6\C,-1.0231174396,1.9733906945,-0.1591986619\C,-1.6858543464,2.1521624
 673,1.0069623199\C,-3.168397228,2.3743447861,0.9814915855\O,-3.7896194
 087,2.4144733758,2.0281000046\C,-1.0879977741,2.0667720346,2.375258453
 8\H,-1.2162663911,3.0082064838,2.9272332182\H,-1.61496224,1.3058627238
 ,2.9670215336\H,-0.0249140634,1.7976758189,2.349541122\H,-4.305788424,
 1.4782530285,-0.5532766229\H,-4.7196742886,3.152349699,-0.2353211332\H
 ,-2.6590713439,3.9278526608,-1.3941248569\H,-3.4725182333,2.7831129451
 ,-2.4580973718\H,-1.0099491688,2.2973921226,-2.2960424637\H,-1.9890428
 697,0.9554105525,-1.7551194303\C,2.4044401517,2.2936457996,-1.89930218
 07\H,1.5860108205,2.2202336186,-2.6260230875\H,3.0810842751,1.44465938
 9,-2.0642887816\H,2.9726201028,3.2116398687,-2.120029139\C,1.922384485
 5,2.3241089295,-0.4746857956\C,0.7826994025,3.1045426912,-0.1183750254
 \C,3.0196825789,2.3002046934,0.5604485419\C,0.3036196241,4.2214492497,
 -0.9938713012\H,-0.6332460134,4.6583756869,-0.6354347818\H,1.085652046
 8,4.9956497534,-0.9296693626\H,0.2037767654,3.9622797007,-2.0523976827
 \H,0.7198490572,3.3378763556,0.947224161\H,3.7604295896,1.5227817721,0
 .3110547013\H,2.6163757972,2.0853027683,1.5656528525\O,3.595501927,3.5
 91890135,0.5068301539\H,4.3567486568,3.6456859174,1.1019894738\Pd,0.61
 61858034,0.6996534107,-0.1697887127\C,-0.1141221123,-2.1981816568,-0.6
 69915566\C,-0.783601514,-3.3816677088,-0.9539212446\C,-2.143509757,-3.
 4483959386,-0.6691643487\C,-2.7687206396,-2.3379673624,-0.1143874194\C
 ,-4.2319814966,-2.4047458816,0.2358271957\C,-2.0231869006,-1.185731211
 3,0.1245356472\N,-0.7257710428,-1.1156815224,-0.1548251041\H,-2.713653
 1587,-4.3532026036,-0.8749072999\H,-0.2472922943,-4.2259523658,-1.3797
 326618\H,-2.4770084959,-0.2922452506,0.5550277821\C,1.339362045,-2.052
 9427426,-0.8213636651\O,2.0215508907,-3.0440885308,-1.3802003892\N,1.9
 927986225,-1.0428923377,-0.3633736142\C,3.3929837917,-2.5617545479,-1.
 4439652586\H,4.0481261758,-3.4108103707,-1.2376951807\H,3.5618898442,-
 2.2090331619,-2.4688023728\C,3.4217303841,-1.438081169,-0.4032117649\C
 ,3.9424594873,-1.8815564198,0.9915058197\H,4.0273265907,-0.5866950619,
 -0.7479930185\F,-4.9345858805,-2.9157049993,-0.7798714122\F,-4.7269844
 994,-1.1983599604,0.518434471\F,-4.4254919556,-3.1927987887,1.29692552
 69\C,3.7864967938,-0.7491284884,2.0042179876\H,4.1261458807,-1.0866108
 146,2.9925754268\H,4.4012888338,0.1198554298,1.7318680805\H,2.74112038
 81,-0.4242654374,2.1043002267\C,3.1937734878,-3.1085763613,1.515433013
 2\H,3.2762477201,-3.9794479004,0.8508344867\H,3.6117306794,-3.40621528
 02,2.4861057131\H,2.1266485121,-2.8973640833,1.6790165987\C,5.43257303
 55,-2.2028798158,0.8549845187\H,5.8543054471,-2.4456073038,1.839371367
 9\H,5.6291920752,-3.0654941989,0.2040562437\H,5.9952227752,-1.34427866
 31,0.4595230307\\Version=ES64L-G09RevD.01\State=1-A\HF=-1733.404286\RM
 SD=8.923e-09\RMSF=5.667e-06\Dipole=2.9947933,-0.7472944,-1.6082385\Qua
 drupole=5.1861679,11.2315264,-16.4176943,-1.8938617,12.1303722,-0.5510
 573\PG=C01 [X(C25H34F3N2O3Pd1)]\\@


 TO SEE A WORLD IN A GRAIN OF SAND
 AND A HEAVEN IN A WILD FLOWER
 HOLD INFINITY IN THE PALM OF YOUR HAND
 AND ETERNITY IN AN HOUR

                       -- WILLIAM BLAKE
 Job cpu time:       3 days  2 hours 21 minutes 28.9 seconds.
 File lengths (MBytes):  RWF=  11200 Int=      0 D2E=      0 Chk=     64 Scr=     32
 Normal termination of Gaussian 09 at Sat Feb 24 07:50:32 2018.
