 Entering Gaussian System, Link 0=g09
 Initial command:
 /software/lms/g09_D01/g09/l1.exe "/scratch/user/einsteinguan/6931743/Gau-19035.inp" -scrdir="/scratch/user/einsteinguan/6931743/"
 Default is to use a total of  20 processors:
                               20 via shared-memory
                                1 via Linda
 Entering Link 1 = /software/lms/g09_D01/g09/l1.exe PID=     19036.
  
 Copyright (c) 1988,1990,1992,1993,1995,1998,2003,2009,2013,
            Gaussian, Inc.  All Rights Reserved.
  
 This is part of the Gaussian(R) 09 program.  It is based on
 the Gaussian(R) 03 system (copyright 2003, Gaussian, Inc.),
 the Gaussian(R) 98 system (copyright 1998, Gaussian, Inc.),
 the Gaussian(R) 94 system (copyright 1995, Gaussian, Inc.),
 the Gaussian 92(TM) system (copyright 1992, Gaussian, Inc.),
 the Gaussian 90(TM) system (copyright 1990, Gaussian, Inc.),
 the Gaussian 88(TM) system (copyright 1988, Gaussian, Inc.),
 the Gaussian 86(TM) system (copyright 1986, Carnegie Mellon
 University), and the Gaussian 82(TM) system (copyright 1983,
 Carnegie Mellon University). Gaussian is a federally registered
 trademark of Gaussian, Inc.
  
 This software contains proprietary and confidential information,
 including trade secrets, belonging to Gaussian, Inc.
  
 This software is provided under written license and may be
 used, copied, transmitted, or stored only in accord with that
 written license.
  
 The following legend is applicable only to US Government
 contracts under FAR:
  
                    RESTRICTED RIGHTS LEGEND
  
 Use, reproduction and disclosure by the US Government is
 subject to restrictions as set forth in subparagraphs (a)
 and (c) of the Commercial Computer Software - Restricted
 Rights clause in FAR 52.227-19.
  
 Gaussian, Inc.
 340 Quinnipiac St., Bldg. 40, Wallingford CT 06492
  
  
 ---------------------------------------------------------------
 Warning -- This program may not be used in any manner that
 competes with the business of Gaussian, Inc. or will provide
 assistance to any competitor of Gaussian, Inc.  The licensee
 of this program is prohibited from giving any competitor of
 Gaussian, Inc. access to this program.  By using this program,
 the user acknowledges that Gaussian, Inc. is engaged in the
 business of creating and licensing software in the field of
 computational chemistry and represents and warrants to the
 licensee that it is not a competitor of Gaussian, Inc. and that
 it will not use this program in any manner prohibited above.
 ---------------------------------------------------------------
  

 Cite this work as:
 Gaussian 09, Revision D.01,
 M. J. Frisch, G. W. Trucks, H. B. Schlegel, G. E. Scuseria, 
 M. A. Robb, J. R. Cheeseman, G. Scalmani, V. Barone, B. Mennucci, 
 G. A. Petersson, H. Nakatsuji, M. Caricato, X. Li, H. P. Hratchian, 
 A. F. Izmaylov, J. Bloino, G. Zheng, J. L. Sonnenberg, M. Hada, 
 M. Ehara, K. Toyota, R. Fukuda, J. Hasegawa, M. Ishida, T. Nakajima, 
 Y. Honda, O. Kitao, H. Nakai, T. Vreven, J. A. Montgomery, Jr., 
 J. E. Peralta, F. Ogliaro, M. Bearpark, J. J. Heyd, E. Brothers, 
 K. N. Kudin, V. N. Staroverov, T. Keith, R. Kobayashi, J. Normand, 
 K. Raghavachari, A. Rendell, J. C. Burant, S. S. Iyengar, J. Tomasi, 
 M. Cossi, N. Rega, J. M. Millam, M. Klene, J. E. Knox, J. B. Cross, 
 V. Bakken, C. Adamo, J. Jaramillo, R. Gomperts, R. E. Stratmann, 
 O. Yazyev, A. J. Austin, R. Cammi, C. Pomelli, J. W. Ochterski, 
 R. L. Martin, K. Morokuma, V. G. Zakrzewski, G. A. Voth, 
 P. Salvador, J. J. Dannenberg, S. Dapprich, A. D. Daniels, 
 O. Farkas, J. B. Foresman, J. V. Ortiz, J. Cioslowski, 
 and D. J. Fox, Gaussian, Inc., Wallingford CT, 2013.
 
 ******************************************
 Gaussian 09:  ES64L-G09RevD.01 24-Apr-2013
                 3-Dec-2017 
 ******************************************
 ----------------------------------------------------------------------
 #M06/def2SVP denfit opt=(modredundant,maxcyc=1000) scrf=(SMD,solvent=b
 enzene)
 ----------------------------------------------------------------------
 1/6=1000,14=-1,18=120,19=15,26=3,38=1/1,3;
 2/9=110,12=2,17=6,18=5,40=1/2;
 3/5=43,7=101,11=2,16=1,25=1,30=1,70=32201,71=1,72=12,74=-54,82=47/1,2,3;
 4//1;
 5/5=2,38=5,53=12/2;
 6/7=2,8=2,9=2,10=2,28=1/1;
 7//1,2,3,16;
 1/6=1000,14=-1,18=20,19=15,26=3/3(2);
 2/9=110/2;
 99//99;
 2/9=110/2;
 3/5=43,7=101,11=2,16=1,25=1,30=1,70=32205,71=1,72=12,74=-54,82=47/1,2,3;
 4/5=5,16=3,69=1/1;
 5/5=2,38=5,53=12/2;
 7//1,2,3,16;
 1/6=1000,14=-1,18=20,19=15,26=3/3(-5);
 2/9=110/2;
 6/7=2,8=2,9=2,10=2,19=2,28=1/1;
 99/9=1/99;
 ------------------------------------------------------
 Sub-10-CF3-11-CF3-5-CF3-8-CF3/R/ts2 step 2 (attempt 1)
 ------------------------------------------------------
 Symbolic Z-matrix:
 Charge =  0 Multiplicity = 1
 Rh                   0    -0.1429    0.05649  -0.27676 
 C                    0     0.74701   0.1853   -2.00646 
 O                    0     1.32105   0.28799  -3.00315 
 P                    0     0.09034   2.30327   0.16985 
 C                    0     0.36864   2.88308   1.93794 
 C                    0    -1.52518   3.0956   -0.3005 
 P                    0    -2.5052    0.48668  -0.69805 
 C                    0    -4.0222   -0.36953   0.01818 
 C                    0    -2.70371   2.19293   0.02685 
 C                    0     1.3378    3.3601   -0.75526 
 C                    0    -3.02298   0.69952  -2.49172 
 H                    0    -1.44591  -2.77023   2.04803 
 H                    0    -2.78874   2.04671   1.12157 
 H                    0    -3.65963   2.63618  -0.30937 
 H                    0    -1.61541   4.08337   0.18881 
 H                    0    -1.46994   3.28517  -1.38987 
 H                    0    -2.02755  -2.77149   0.3572 
 H                    0    -1.02626  -4.11259   0.96158 
 C                    0    -1.17074  -3.01379   1.00937 
 C                    0     0.09676  -2.32042   0.54711 
 C                    0     0.39473  -2.79184  -0.87961 
 H                    0     1.33831  -2.38578  -1.27669 
 H                    0    -0.41354  -2.57174  -1.59465 
 H                    0     0.51184  -3.89858  -0.85387 
 C                    0     1.28685  -2.70005   1.40896 
 H                    0     2.20198  -2.17827   1.0815 
 H                    0     1.13262  -2.48614   2.47815 
 H                    0     1.47571  -3.78913   1.31697 
 C                    0    -0.25335  -0.53954   1.48074 
 O                    0    -0.43012  -0.6078    2.63911 
 F                    0     1.16388   4.65932  -0.57411 
 F                    0     1.20518   3.11123  -2.05014 
 F                    0     2.56501   3.04004  -0.38822 
 F                    0    -4.15979   1.35195  -2.6731 
 F                    0    -3.12717  -0.48805  -3.06354 
 F                    0    -2.06335   1.37129  -3.11308 
 F                    0     1.52181   2.40678   2.37414 
 F                    0    -0.60222   2.37676   2.68504 
 F                    0     0.36528   4.19521   2.10339 
 F                    0    -5.13826   0.34064  -0.02784 
 F                    0    -3.7504   -0.61441   1.29359 
 F                    0    -4.24241  -1.524    -0.58589 
 
 Add virtual bond connecting atoms C29        and C20        Dist= 3.86D+00.
 The following ModRedundant input section has been read:
 B      20      29 F                                                           
 

 GradGradGradGradGradGradGradGradGradGradGradGradGradGradGradGradGradGrad
 Berny optimization.
 Initialization pass.
                           ----------------------------
                           !    Initial Parameters    !
                           ! (Angstroms and Degrees)  !
 --------------------------                            --------------------------
 ! Name  Definition              Value          Derivative Info.                !
 --------------------------------------------------------------------------------
 ! R1    R(1,2)                  1.9495         estimate D2E/DX2                !
 ! R2    R(1,4)                  2.3026         estimate D2E/DX2                !
 ! R3    R(1,7)                  2.4378         estimate D2E/DX2                !
 ! R4    R(1,29)                 1.8591         estimate D2E/DX2                !
 ! R5    R(2,3)                  1.1548         estimate D2E/DX2                !
 ! R6    R(4,5)                  1.8814         estimate D2E/DX2                !
 ! R7    R(4,6)                  1.8598         estimate D2E/DX2                !
 ! R8    R(4,10)                 1.8785         estimate D2E/DX2                !
 ! R9    R(5,37)                 1.3217         estimate D2E/DX2                !
 ! R10   R(5,38)                 1.3256         estimate D2E/DX2                !
 ! R11   R(5,39)                 1.3225         estimate D2E/DX2                !
 ! R12   R(6,9)                  1.5202         estimate D2E/DX2                !
 ! R13   R(6,15)                 1.106          estimate D2E/DX2                !
 ! R14   R(6,16)                 1.1071         estimate D2E/DX2                !
 ! R15   R(7,8)                  1.8834         estimate D2E/DX2                !
 ! R16   R(7,9)                  1.8645         estimate D2E/DX2                !
 ! R17   R(7,11)                 1.879          estimate D2E/DX2                !
 ! R18   R(8,40)                 1.3237         estimate D2E/DX2                !
 ! R19   R(8,41)                 1.3268         estimate D2E/DX2                !
 ! R20   R(8,42)                 1.3214         estimate D2E/DX2                !
 ! R21   R(9,13)                 1.1077         estimate D2E/DX2                !
 ! R22   R(9,14)                 1.106          estimate D2E/DX2                !
 ! R23   R(10,31)                1.3233         estimate D2E/DX2                !
 ! R24   R(10,32)                1.3252         estimate D2E/DX2                !
 ! R25   R(10,33)                1.3203         estimate D2E/DX2                !
 ! R26   R(11,34)                1.3232         estimate D2E/DX2                !
 ! R27   R(11,35)                1.3222         estimate D2E/DX2                !
 ! R28   R(11,36)                1.326          estimate D2E/DX2                !
 ! R29   R(12,19)                1.1018         estimate D2E/DX2                !
 ! R30   R(17,19)                1.1037         estimate D2E/DX2                !
 ! R31   R(18,19)                1.1093         estimate D2E/DX2                !
 ! R32   R(19,20)                1.5169         estimate D2E/DX2                !
 ! R33   R(20,21)                1.5318         estimate D2E/DX2                !
 ! R34   R(20,25)                1.5176         estimate D2E/DX2                !
 ! R35   R(20,29)                2.041          Frozen                          !
 ! R36   R(21,22)                1.1013         estimate D2E/DX2                !
 ! R37   R(21,23)                1.1014         estimate D2E/DX2                !
 ! R38   R(21,24)                1.1132         estimate D2E/DX2                !
 ! R39   R(25,26)                1.1032         estimate D2E/DX2                !
 ! R40   R(25,27)                1.1012         estimate D2E/DX2                !
 ! R41   R(25,28)                1.1092         estimate D2E/DX2                !
 ! R42   R(29,30)                1.1738         estimate D2E/DX2                !
 ! A1    A(2,1,4)               93.5191         estimate D2E/DX2                !
 ! A2    A(2,1,7)              106.1024         estimate D2E/DX2                !
 ! A3    A(2,1,29)             152.5092         estimate D2E/DX2                !
 ! A4    A(4,1,7)               87.6782         estimate D2E/DX2                !
 ! A5    A(4,1,29)              97.7869         estimate D2E/DX2                !
 ! A6    A(7,1,29)              99.3447         estimate D2E/DX2                !
 ! A7    A(1,4,5)              119.8655         estimate D2E/DX2                !
 ! A8    A(1,4,6)              106.1802         estimate D2E/DX2                !
 ! A9    A(1,4,10)             121.3791         estimate D2E/DX2                !
 ! A10   A(5,4,6)              103.5838         estimate D2E/DX2                !
 ! A11   A(5,4,10)             101.0226         estimate D2E/DX2                !
 ! A12   A(6,4,10)             102.2755         estimate D2E/DX2                !
 ! A13   A(4,5,37)             109.1566         estimate D2E/DX2                !
 ! A14   A(4,5,38)             107.6746         estimate D2E/DX2                !
 ! A15   A(4,5,39)             115.0206         estimate D2E/DX2                !
 ! A16   A(37,5,38)            108.3826         estimate D2E/DX2                !
 ! A17   A(37,5,39)            108.5702         estimate D2E/DX2                !
 ! A18   A(38,5,39)            107.8539         estimate D2E/DX2                !
 ! A19   A(4,6,9)              111.4689         estimate D2E/DX2                !
 ! A20   A(4,6,15)             109.844          estimate D2E/DX2                !
 ! A21   A(4,6,16)             106.1679         estimate D2E/DX2                !
 ! A22   A(9,6,15)             111.8268         estimate D2E/DX2                !
 ! A23   A(9,6,16)             110.6245         estimate D2E/DX2                !
 ! A24   A(15,6,16)            106.6465         estimate D2E/DX2                !
 ! A25   A(1,7,8)              129.3865         estimate D2E/DX2                !
 ! A26   A(1,7,9)              101.3893         estimate D2E/DX2                !
 ! A27   A(1,7,11)             116.8707         estimate D2E/DX2                !
 ! A28   A(8,7,9)              100.5106         estimate D2E/DX2                !
 ! A29   A(8,7,11)             101.1016         estimate D2E/DX2                !
 ! A30   A(9,7,11)             103.7771         estimate D2E/DX2                !
 ! A31   A(7,8,40)             114.9607         estimate D2E/DX2                !
 ! A32   A(7,8,41)             106.5251         estimate D2E/DX2                !
 ! A33   A(7,8,42)             110.9496         estimate D2E/DX2                !
 ! A34   A(40,8,41)            107.7676         estimate D2E/DX2                !
 ! A35   A(40,8,42)            108.2002         estimate D2E/DX2                !
 ! A36   A(41,8,42)            108.1984         estimate D2E/DX2                !
 ! A37   A(6,9,7)              112.157          estimate D2E/DX2                !
 ! A38   A(6,9,13)             110.5305         estimate D2E/DX2                !
 ! A39   A(6,9,14)             111.5071         estimate D2E/DX2                !
 ! A40   A(7,9,13)             105.7603         estimate D2E/DX2                !
 ! A41   A(7,9,14)             109.9124         estimate D2E/DX2                !
 ! A42   A(13,9,14)            106.6773         estimate D2E/DX2                !
 ! A43   A(4,10,31)            113.4324         estimate D2E/DX2                !
 ! A44   A(4,10,32)            108.004          estimate D2E/DX2                !
 ! A45   A(4,10,33)            110.1182         estimate D2E/DX2                !
 ! A46   A(31,10,32)           107.7576         estimate D2E/DX2                !
 ! A47   A(31,10,33)           108.7909         estimate D2E/DX2                !
 ! A48   A(32,10,33)           108.6097         estimate D2E/DX2                !
 ! A49   A(7,11,34)            115.0519         estimate D2E/DX2                !
 ! A50   A(7,11,35)            109.4399         estimate D2E/DX2                !
 ! A51   A(7,11,36)            107.7746         estimate D2E/DX2                !
 ! A52   A(34,11,35)           108.4146         estimate D2E/DX2                !
 ! A53   A(34,11,36)           107.9222         estimate D2E/DX2                !
 ! A54   A(35,11,36)           108.0237         estimate D2E/DX2                !
 ! A55   A(12,19,17)           108.3389         estimate D2E/DX2                !
 ! A56   A(12,19,18)           106.985          estimate D2E/DX2                !
 ! A57   A(12,19,20)           113.2618         estimate D2E/DX2                !
 ! A58   A(17,19,18)           107.0444         estimate D2E/DX2                !
 ! A59   A(17,19,20)           111.6078         estimate D2E/DX2                !
 ! A60   A(18,19,20)           109.3182         estimate D2E/DX2                !
 ! A61   A(19,20,21)           107.7997         estimate D2E/DX2                !
 ! A62   A(19,20,25)           111.5827         estimate D2E/DX2                !
 ! A63   A(19,20,29)            96.6673         estimate D2E/DX2                !
 ! A64   A(21,20,25)           107.4216         estimate D2E/DX2                !
 ! A65   A(21,20,29)           136.713          estimate D2E/DX2                !
 ! A66   A(25,20,29)            95.3366         estimate D2E/DX2                !
 ! A67   A(20,21,22)           112.8921         estimate D2E/DX2                !
 ! A68   A(20,21,23)           113.6044         estimate D2E/DX2                !
 ! A69   A(20,21,24)           107.7512         estimate D2E/DX2                !
 ! A70   A(22,21,23)           108.7236         estimate D2E/DX2                !
 ! A71   A(22,21,24)           106.5447         estimate D2E/DX2                !
 ! A72   A(23,21,24)           106.9114         estimate D2E/DX2                !
 ! A73   A(20,25,26)           111.3232         estimate D2E/DX2                !
 ! A74   A(20,25,27)           113.1383         estimate D2E/DX2                !
 ! A75   A(20,25,28)           109.3928         estimate D2E/DX2                !
 ! A76   A(26,25,27)           108.2104         estimate D2E/DX2                !
 ! A77   A(26,25,28)           107.371          estimate D2E/DX2                !
 ! A78   A(27,25,28)           107.1636         estimate D2E/DX2                !
 ! A79   A(1,29,20)             80.6255         estimate D2E/DX2                !
 ! A80   A(1,29,30)            163.8508         estimate D2E/DX2                !
 ! A81   A(20,29,30)           115.2471         estimate D2E/DX2                !
 ! A82   L(1,2,3,10,-1)        177.8738         estimate D2E/DX2                !
 ! A83   L(1,2,3,10,-2)        177.8429         estimate D2E/DX2                !
 ! D1    D(2,1,4,5)           -145.7387         estimate D2E/DX2                !
 ! D2    D(2,1,4,6)             97.6062         estimate D2E/DX2                !
 ! D3    D(2,1,4,10)           -18.2599         estimate D2E/DX2                !
 ! D4    D(7,1,4,5)            108.2627         estimate D2E/DX2                !
 ! D5    D(7,1,4,6)             -8.3924         estimate D2E/DX2                !
 ! D6    D(7,1,4,10)          -124.2585         estimate D2E/DX2                !
 ! D7    D(29,1,4,5)             9.1443         estimate D2E/DX2                !
 ! D8    D(29,1,4,6)          -107.5108         estimate D2E/DX2                !
 ! D9    D(29,1,4,10)          136.623          estimate D2E/DX2                !
 ! D10   D(2,1,7,8)            138.848          estimate D2E/DX2                !
 ! D11   D(2,1,7,9)           -107.1888         estimate D2E/DX2                !
 ! D12   D(2,1,7,11)             4.7984         estimate D2E/DX2                !
 ! D13   D(4,1,7,8)           -128.1577         estimate D2E/DX2                !
 ! D14   D(4,1,7,9)            -14.1945         estimate D2E/DX2                !
 ! D15   D(4,1,7,11)            97.7927         estimate D2E/DX2                !
 ! D16   D(29,1,7,8)           -30.6447         estimate D2E/DX2                !
 ! D17   D(29,1,7,9)            83.3185         estimate D2E/DX2                !
 ! D18   D(29,1,7,11)         -164.6943         estimate D2E/DX2                !
 ! D19   D(2,1,29,20)          -51.7398         estimate D2E/DX2                !
 ! D20   D(2,1,29,30)          138.4883         estimate D2E/DX2                !
 ! D21   D(4,1,29,20)         -165.1312         estimate D2E/DX2                !
 ! D22   D(4,1,29,30)           25.0968         estimate D2E/DX2                !
 ! D23   D(7,1,29,20)          105.9538         estimate D2E/DX2                !
 ! D24   D(7,1,29,30)          -63.8182         estimate D2E/DX2                !
 ! D25   D(1,4,5,37)            63.7236         estimate D2E/DX2                !
 ! D26   D(1,4,5,38)           -53.7333         estimate D2E/DX2                !
 ! D27   D(1,4,5,39)          -173.9873         estimate D2E/DX2                !
 ! D28   D(6,4,5,37)          -178.2857         estimate D2E/DX2                !
 ! D29   D(6,4,5,38)            64.2573         estimate D2E/DX2                !
 ! D30   D(6,4,5,39)           -55.9966         estimate D2E/DX2                !
 ! D31   D(10,4,5,37)          -72.6269         estimate D2E/DX2                !
 ! D32   D(10,4,5,38)          169.9161         estimate D2E/DX2                !
 ! D33   D(10,4,5,39)           49.6621         estimate D2E/DX2                !
 ! D34   D(1,4,6,9)             36.5315         estimate D2E/DX2                !
 ! D35   D(1,4,6,15)           161.0502         estimate D2E/DX2                !
 ! D36   D(1,4,6,16)           -84.0066         estimate D2E/DX2                !
 ! D37   D(5,4,6,9)            -90.5918         estimate D2E/DX2                !
 ! D38   D(5,4,6,15)            33.9269         estimate D2E/DX2                !
 ! D39   D(5,4,6,16)           148.87           estimate D2E/DX2                !
 ! D40   D(10,4,6,9)           164.7012         estimate D2E/DX2                !
 ! D41   D(10,4,6,15)          -70.7801         estimate D2E/DX2                !
 ! D42   D(10,4,6,16)           44.163          estimate D2E/DX2                !
 ! D43   D(1,4,10,31)          167.3132         estimate D2E/DX2                !
 ! D44   D(1,4,10,32)           47.9481         estimate D2E/DX2                !
 ! D45   D(1,4,10,33)          -70.5027         estimate D2E/DX2                !
 ! D46   D(5,4,10,31)          -57.204          estimate D2E/DX2                !
 ! D47   D(5,4,10,32)         -176.5691         estimate D2E/DX2                !
 ! D48   D(5,4,10,33)           64.9801         estimate D2E/DX2                !
 ! D49   D(6,4,10,31)           49.4903         estimate D2E/DX2                !
 ! D50   D(6,4,10,32)          -69.8749         estimate D2E/DX2                !
 ! D51   D(6,4,10,33)          171.6744         estimate D2E/DX2                !
 ! D52   D(4,6,9,7)            -52.7191         estimate D2E/DX2                !
 ! D53   D(4,6,9,13)            65.0338         estimate D2E/DX2                !
 ! D54   D(4,6,9,14)          -176.4799         estimate D2E/DX2                !
 ! D55   D(15,6,9,7)          -176.1173         estimate D2E/DX2                !
 ! D56   D(15,6,9,13)          -58.3644         estimate D2E/DX2                !
 ! D57   D(15,6,9,14)           60.1219         estimate D2E/DX2                !
 ! D58   D(16,6,9,7)            65.1674         estimate D2E/DX2                !
 ! D59   D(16,6,9,13)         -177.0797         estimate D2E/DX2                !
 ! D60   D(16,6,9,14)          -58.5934         estimate D2E/DX2                !
 ! D61   D(1,7,8,40)           158.0611         estimate D2E/DX2                !
 ! D62   D(1,7,8,41)            38.7732         estimate D2E/DX2                !
 ! D63   D(1,7,8,42)           -78.7697         estimate D2E/DX2                !
 ! D64   D(9,7,8,40)            43.7189         estimate D2E/DX2                !
 ! D65   D(9,7,8,41)           -75.569          estimate D2E/DX2                !
 ! D66   D(9,7,8,42)           166.888          estimate D2E/DX2                !
 ! D67   D(11,7,8,40)          -62.7344         estimate D2E/DX2                !
 ! D68   D(11,7,8,41)          177.9777         estimate D2E/DX2                !
 ! D69   D(11,7,8,42)           60.4348         estimate D2E/DX2                !
 ! D70   D(1,7,9,6)             41.1431         estimate D2E/DX2                !
 ! D71   D(1,7,9,13)           -79.4134         estimate D2E/DX2                !
 ! D72   D(1,7,9,14)           165.7909         estimate D2E/DX2                !
 ! D73   D(8,7,9,6)            175.2272         estimate D2E/DX2                !
 ! D74   D(8,7,9,13)            54.6708         estimate D2E/DX2                !
 ! D75   D(8,7,9,14)           -60.1249         estimate D2E/DX2                !
 ! D76   D(11,7,9,6)           -80.4652         estimate D2E/DX2                !
 ! D77   D(11,7,9,13)          158.9784         estimate D2E/DX2                !
 ! D78   D(11,7,9,14)           44.1827         estimate D2E/DX2                !
 ! D79   D(1,7,11,34)         -158.4881         estimate D2E/DX2                !
 ! D80   D(1,7,11,35)           79.1855         estimate D2E/DX2                !
 ! D81   D(1,7,11,36)          -38.0539         estimate D2E/DX2                !
 ! D82   D(8,7,11,34)           55.9902         estimate D2E/DX2                !
 ! D83   D(8,7,11,35)          -66.3362         estimate D2E/DX2                !
 ! D84   D(8,7,11,36)          176.4244         estimate D2E/DX2                !
 ! D85   D(9,7,11,34)          -47.8679         estimate D2E/DX2                !
 ! D86   D(9,7,11,35)         -170.1943         estimate D2E/DX2                !
 ! D87   D(9,7,11,36)           72.5664         estimate D2E/DX2                !
 ! D88   D(12,19,20,21)        177.5394         estimate D2E/DX2                !
 ! D89   D(12,19,20,25)         59.8184         estimate D2E/DX2                !
 ! D90   D(12,19,20,29)        -38.6313         estimate D2E/DX2                !
 ! D91   D(17,19,20,21)        -59.8701         estimate D2E/DX2                !
 ! D92   D(17,19,20,25)       -177.5911         estimate D2E/DX2                !
 ! D93   D(17,19,20,29)         83.9592         estimate D2E/DX2                !
 ! D94   D(18,19,20,21)         58.3543         estimate D2E/DX2                !
 ! D95   D(18,19,20,25)        -59.3668         estimate D2E/DX2                !
 ! D96   D(18,19,20,29)       -157.8165         estimate D2E/DX2                !
 ! D97   D(19,20,21,22)       -176.389          estimate D2E/DX2                !
 ! D98   D(19,20,21,23)         59.2241         estimate D2E/DX2                !
 ! D99   D(19,20,21,24)        -59.0189         estimate D2E/DX2                !
 ! D100  D(25,20,21,22)        -56.0139         estimate D2E/DX2                !
 ! D101  D(25,20,21,23)        179.5991         estimate D2E/DX2                !
 ! D102  D(25,20,21,24)         61.3561         estimate D2E/DX2                !
 ! D103  D(29,20,21,22)         62.3657         estimate D2E/DX2                !
 ! D104  D(29,20,21,23)        -62.0213         estimate D2E/DX2                !
 ! D105  D(29,20,21,24)        179.7357         estimate D2E/DX2                !
 ! D106  D(19,20,25,26)       -178.8803         estimate D2E/DX2                !
 ! D107  D(19,20,25,27)        -56.7649         estimate D2E/DX2                !
 ! D108  D(19,20,25,28)         62.618          estimate D2E/DX2                !
 ! D109  D(21,20,25,26)         63.1713         estimate D2E/DX2                !
 ! D110  D(21,20,25,27)       -174.7132         estimate D2E/DX2                !
 ! D111  D(21,20,25,28)        -55.3303         estimate D2E/DX2                !
 ! D112  D(29,20,25,26)        -79.5368         estimate D2E/DX2                !
 ! D113  D(29,20,25,27)         42.5787         estimate D2E/DX2                !
 ! D114  D(29,20,25,28)        161.9616         estimate D2E/DX2                !
 ! D115  D(19,20,29,1)        -120.8951         estimate D2E/DX2                !
 ! D116  D(19,20,29,30)         55.9748         estimate D2E/DX2                !
 ! D117  D(21,20,29,1)           4.0631         estimate D2E/DX2                !
 ! D118  D(21,20,29,30)       -179.0671         estimate D2E/DX2                !
 ! D119  D(25,20,29,1)         126.5927         estimate D2E/DX2                !
 ! D120  D(25,20,29,30)        -56.5374         estimate D2E/DX2                !
 --------------------------------------------------------------------------------
 Trust Radius=3.00D-01 FncErr=1.00D-07 GrdErr=1.00D-06
 Number of steps in this run=    252 maximum allowed number of steps=    252.
 GradGradGradGradGradGradGradGradGradGradGradGradGradGradGradGradGradGrad

                          Input orientation:                          
 ---------------------------------------------------------------------
 Center     Atomic      Atomic             Coordinates (Angstroms)
 Number     Number       Type             X           Y           Z
 ---------------------------------------------------------------------
      1         45           0       -0.142900    0.056490   -0.276760
      2          6           0        0.747010    0.185300   -2.006460
      3          8           0        1.321050    0.287990   -3.003150
      4         15           0        0.090340    2.303270    0.169850
      5          6           0        0.368643    2.883076    1.937937
      6          6           0       -1.525180    3.095600   -0.300500
      7         15           0       -2.505200    0.486680   -0.698050
      8          6           0       -4.022203   -0.369532    0.018176
      9          6           0       -2.703710    2.192930    0.026850
     10          6           0        1.337796    3.360100   -0.755260
     11          6           0       -3.022982    0.699516   -2.491723
     12          1           0       -1.445910   -2.770230    2.048030
     13          1           0       -2.788740    2.046710    1.121570
     14          1           0       -3.659630    2.636180   -0.309370
     15          1           0       -1.615410    4.083370    0.188810
     16          1           0       -1.469940    3.285170   -1.389870
     17          1           0       -2.027550   -2.771490    0.357200
     18          1           0       -1.026260   -4.112590    0.961580
     19          6           0       -1.170740   -3.013790    1.009370
     20          6           0        0.096760   -2.320420    0.547110
     21          6           0        0.394730   -2.791840   -0.879610
     22          1           0        1.338310   -2.385780   -1.276690
     23          1           0       -0.413540   -2.571740   -1.594650
     24          1           0        0.511840   -3.898580   -0.853870
     25          6           0        1.286850   -2.700050    1.408960
     26          1           0        2.201980   -2.178270    1.081500
     27          1           0        1.132620   -2.486140    2.478150
     28          1           0        1.475710   -3.789130    1.316970
     29          6           0       -0.253350   -0.539540    1.480740
     30          8           0       -0.430120   -0.607800    2.639110
     31          9           0        1.163876    4.659321   -0.574113
     32          9           0        1.205180    3.111225   -2.050143
     33          9           0        2.565006    3.040044   -0.388219
     34          9           0       -4.159787    1.351948   -2.673098
     35          9           0       -3.127166   -0.488047   -3.063541
     36          9           0       -2.063351    1.371294   -3.113076
     37          9           0        1.521810    2.406775    2.374143
     38          9           0       -0.602218    2.376756    2.685041
     39          9           0        0.365277    4.195208    2.103391
     40          9           0       -5.138262    0.340642   -0.027836
     41          9           0       -3.750397   -0.614406    1.293586
     42          9           0       -4.242410   -1.523999   -0.585885
 ---------------------------------------------------------------------
                    Distance matrix (angstroms):
                    1          2          3          4          5
     1  Rh   0.000000
     2  C    1.949460   0.000000
     3  O    3.103215   1.154755   0.000000
     4  P    2.302582   3.106982   3.955241   0.000000
     5  C    3.627140   4.793686   5.661792   1.881425   0.000000
     6  C    3.338780   4.067308   4.825766   1.859817   2.939784
     7  P    2.437829   3.518471   4.471370   3.284825   4.577130
     8  C    3.913754   5.210795   6.173419   4.907126   5.791759
     9  C    3.348776   4.480223   5.385944   2.799882   3.683464
    10  C    3.651748   3.463219   3.806724   1.878527   2.901744
    11  C    3.689772   3.835719   4.393350   4.398724   5.991072
    12  H    3.884949   5.475668   6.520981   5.623880   5.938400
    13  H    3.593991   5.074539   6.082498   3.043139   3.366754
    14  H    4.361566   5.320282   6.130059   3.795096   4.619343
    15  H    4.312865   5.059169   5.763360   2.465502   2.904586
    16  H    3.663936   3.860602   4.401748   2.414814   3.823136
    17  H    3.457063   4.693365   5.644953   5.502158   6.341497
    18  H    4.437909   5.515941   6.371346   6.560251   7.199887
    19  C    3.483849   4.796579   5.762906   5.528675   6.164817
    20  C    2.527034   3.636231   4.572421   4.639060   5.393022
    21  C    2.960652   3.202695   3.853939   5.210966   6.335923
    22  H    3.026306   2.737271   3.182767   5.063309   6.247794
    23  H    2.952571   3.019558   3.629150   5.208942   6.545686
    24  H    4.050225   4.249923   4.775101   6.299890   7.335227
    25  C    3.533320   4.503528   5.328815   5.291525   5.682800
    26  H    3.512476   4.151975   4.852097   5.037294   5.450856
    27  H    3.959981   5.234216   6.146215   5.417845   5.450135
    28  H    4.466393   5.231853   5.942244   6.352360   6.791872
    29  C    1.859101   3.699551   4.823776   3.149305   3.508590
    30  O    3.004343   4.857568   5.975294   3.852590   3.649093
    31  F    4.793969   4.716170   5.003345   2.693870   3.177709
    32  F    3.780689   2.961902   2.981997   2.612284   4.081253
    33  F    4.030729   3.751450   3.994883   2.641638   3.203069
    34  F    4.853455   5.087448   5.592899   5.201052   6.641737
    35  F    4.119285   4.071862   4.515806   5.347767   6.971365
    36  F    3.668996   3.244890   3.555250   4.035414   5.806274
    37  F    3.914382   4.972419   5.783151   2.630347   1.321716
    38  F    3.790366   5.350988   6.357470   2.609832   1.325555
    39  F    4.801286   5.754647   6.500509   2.719118   1.322527
    40  F    5.009625   6.210919   7.111820   5.588315   6.376068
    41  F    3.991256   5.635291   6.707893   4.952462   5.441880
    42  F    4.404485   5.462055   6.330763   5.830253   6.859577
                    6          7          8          9         10
     6  C    0.000000
     7  P    2.815129   0.000000
     8  C    4.282968   1.883448   0.000000
     9  C    1.520166   1.864450   2.881789   0.000000
    10  C    2.910910   4.798795   6.575557   4.278756   0.000000
    11  C    3.575764   1.879005   2.905323   2.945408   5.395405
    12  H    6.319006   4.389819   4.064596   5.504561   7.293038
    13  H    2.172335   2.413526   2.928675   1.107710   4.719723
    14  H    2.183351   2.470654   3.045168   1.106028   5.069235
    15  H    1.106009   3.809780   5.064593   2.187325   3.183679
    16  H    1.107120   3.062993   4.674771   2.173079   2.879536
    17  H    5.925174   3.457944   3.140538   5.021134   7.082338
    18  H    7.334833   5.108319   4.886325   6.591445   8.023553
    19  C    6.258277   4.116960   4.013154   5.515911   7.073411
    20  C    5.716853   4.024976   4.588201   5.337006   5.958577
    21  C    6.219596   4.380782   5.116922   5.938849   6.225046
    22  H    6.260834   4.833055   5.871715   6.245136   5.769491
    23  H    5.918556   3.812200   4.524752   5.529577   6.241673
    24  H    7.305766   5.325159   5.811385   6.944201   7.306187
    25  C    6.664782   5.382786   5.962519   6.463440   6.435205
    26  H    6.604192   5.694410   6.568306   6.654733   5.898648
    27  H    6.777951   5.670947   6.091281   6.528399   6.683978
    28  H    7.682516   6.179846   6.603602   7.410601   7.444773
    29  C    4.243184   3.297132   4.046264   3.947715   4.768504
    30  O    4.853415   4.079274   4.452991   4.453897   5.512849
    31  F    3.122677   5.557734   7.248143   4.626280   1.323268
    32  F    3.242894   4.741657   6.612046   4.520684   1.325235
    33  F    4.091504   5.685301   7.428438   5.352500   1.320303
    34  F    3.951038   2.717933   3.197715   3.180744   6.159074
    35  F    4.800342   2.632961   3.211248   4.113085   6.330267
    36  F    3.342670   2.609621   4.083175   3.308214   4.591563
    37  F    4.112462   5.416820   6.632838   4.838443   3.276561
    38  F    3.206564   4.317295   5.133280   3.393529   4.070171
    39  F    3.249870   5.462682   6.665955   4.211867   3.132903
    40  F    4.551758   2.720943   1.323651   3.059576   7.182312
    41  F    4.610515   2.594132   1.326843   3.252892   6.773786
    42  F    5.367074   2.659569   1.321429   4.069226   7.417669
                   11         12         13         14         15
    11  C    0.000000
    12  H    5.927533   0.000000
    13  H    3.863378   5.085709   0.000000
    14  H    2.986411   6.299775   1.775813   0.000000
    15  H    4.540593   7.103328   2.528780   2.553699   0.000000
    16  H    3.211172   6.963304   3.095214   2.526541   1.774969
    17  H    4.599471   1.788075   4.937481   5.687785   6.869303
    18  H    6.250485   1.777192   6.408503   7.354988   8.253365
    19  C    5.429281   1.101751   5.314054   6.313146   7.158263
    20  C    5.299746   2.198845   5.265733   6.277890   6.638406
    21  C    5.144826   3.458251   6.127868   6.799001   7.242285
    22  H    5.478706   4.353556   6.513921   7.150888   7.260995
    23  H    4.279608   3.791346   5.860845   6.269886   6.993977
    24  H    6.026609   3.677905   7.081149   7.771791   8.326098
    25  C    6.734020   2.807368   6.262967   7.476341   7.478413
    26  H    6.953402   3.819908   6.539063   7.711804   7.387658
    27  H    7.219215   2.629549   6.145250   7.548118   7.480054
    28  H    7.408935   3.179382   7.230542   8.384587   8.532527
    29  C    4.998658   2.592295   3.639491   4.989232   4.989548
    30  O    5.895545   2.461160   3.861663   5.444876   5.423648
    31  F    6.073472   8.299689   5.032321   5.237308   2.939082
    32  F    4.887605   7.642958   5.210024   5.188674   3.730108
    33  F    6.413144   7.468738   5.650555   6.238222   4.347110
    34  F    1.323212   6.829826   4.094138   2.736169   4.703726
    35  F    1.322171   5.844924   4.904557   4.198782   5.810426
    36  F    1.325993   6.646087   4.349092   3.465373   4.296331
    37  F    6.873610   5.976211   4.503269   5.839622   4.174781
    38  F    5.955847   5.254433   2.708182   4.287373   3.189084
    39  F    6.694418   7.197277   3.940538   4.944882   2.757036
    40  F    3.267100   5.255493   3.122828   2.745015   5.144457
    41  F    4.072357   3.244599   2.834768   3.625468   5.277101
    42  F    3.172261   4.038689   4.216458   4.209891   6.240502
                   16         17         18         19         20
    16  H    0.000000
    17  H    6.328216   0.000000
    18  H    7.775154   1.779440   0.000000
    19  C    6.747056   1.103702   1.109288   0.000000
    20  C    6.134255   2.179959   2.155187   1.516906   0.000000
    21  C    6.377100   2.719844   2.674617   2.463372   1.531846
    22  H    6.329198   3.761301   3.685501   3.451927   2.207253
    23  H    5.954940   2.540600   3.046959   2.747668   2.216011
    24  H    7.471346   3.030763   2.389019   2.661878   2.150727
    25  C    7.159343   3.478010   2.746979   2.509552   1.517636
    26  H    7.031347   4.331910   3.765303   3.475419   2.176633
    27  H    7.419091   3.816612   3.099369   2.782301   2.197586
    28  H    8.127088   3.772212   2.547701   2.774791   2.156686
    29  C    4.934460   3.064593   3.692371   2.680617   2.041023
    30  O    5.698168   3.527102   3.931036   2.998893   2.754475
    31  F    3.080704   8.140608   9.170685   8.175236   7.149312
    32  F    2.760885   7.131071   8.138385   7.247167   6.121853
    33  F    4.164635   7.444538   8.116608   7.249687   5.975086
    34  F    3.552365   5.543634   7.272623   6.446289   6.478751
    35  F    4.448004   4.257316   5.809709   5.176445   5.175721
    36  F    2.642820   5.404328   6.910236   6.084429   5.629546
    37  F    4.887734   6.593970   7.140736   6.204430   5.264522
    38  F    4.264160   5.827079   6.727685   5.673542   5.207954
    39  F    4.049576   7.570316   8.500566   7.451569   6.704291
    40  F    4.897139   4.417029   6.141562   5.298041   5.900616
    41  F    5.254342   2.915138   4.446172   3.534466   4.274146
    42  F    5.609018   2.711318   4.408976   3.768219   4.554817
                   21         22         23         24         25
    21  C    0.000000
    22  H    1.101318   0.000000
    23  H    1.101375   1.790156   0.000000
    24  H    1.113216   1.774935   1.779210   0.000000
    25  C    2.458019   2.704465   3.453905   2.675353   0.000000
    26  H    2.736526   2.519930   3.762651   3.092199   1.103153
    27  H    3.451447   3.761809   4.357251   3.671881   1.101232
    28  H    2.643496   2.952176   3.678156   2.377724   1.109155
    29  C    3.326276   3.680408   3.689651   4.161619   2.654274
    30  O    4.222771   4.649951   4.667125   4.890545   2.973006
    31  F    7.496980   7.082195   7.471143   8.587263   7.622863
    32  F    6.072327   5.552749   5.926535   7.144869   6.763356
    33  F    6.241990   5.633270   6.466787   7.250988   6.149164
    34  F    6.413361   6.793352   5.531071   7.259596   7.921347
    35  F    4.741389   5.170561   3.723330   5.454974   6.661814
    36  F    5.325619   5.390660   4.535969   6.285475   6.946114
    37  F    6.235609   6.027507   6.654510   7.155250   5.202542
    38  F    6.357281   6.491742   6.545148   7.290052   5.565152
    39  F    7.597236   7.461980   7.750719   8.618369   6.991145
    40  F    6.414980   7.137156   5.767137   7.111750   7.252052
    41  F    5.161984   5.969843   4.827803   5.793447   5.453171
    42  F    4.816302   5.688964   4.095804   5.321028   5.994599
                   26         27         28         29         30
    26  H    0.000000
    27  H    1.785762   0.000000
    28  H    1.782634   1.778717   0.000000
    29  C    2.978838   2.589400   3.684604   0.000000
    30  O    3.438092   2.448719   3.937144   1.173767   0.000000
    31  F    7.111355   7.770129   8.663126   5.767071   6.372455
    32  F    6.227323   7.200083   7.682808   5.284177   6.204389
    33  F    5.433476   6.387997   7.122630   4.924384   5.607340
    34  F    8.187278   8.323211   8.608725   6.007691   6.780161
    35  F    6.959743   7.269697   7.160481   5.376984   6.309408
    36  F    6.956071   7.507052   7.666827   5.294387   6.298563
    37  F    4.812088   4.909471   6.285617   3.553890   3.601097
    38  F    5.584186   5.167226   6.648876   3.174403   2.989867
    39  F    6.711107   6.735701   8.099455   4.815416   4.897809
    40  F    7.839305   7.320835   7.912531   5.187763   5.493518
    41  F    6.158039   5.361943   6.114868   3.502852   3.582557
    42  F    6.688677   6.261387   6.438057   4.599206   5.076768
                   31         32         33         34         35
    31  F    0.000000
    32  F    2.139386   0.000000
    33  F    2.149367   2.148531   0.000000
    34  F    6.609527   5.680317   7.300218   0.000000
    35  F    7.148824   5.722845   7.211491   2.145771   0.000000
    36  F    5.260461   3.852335   5.624168   2.142195   2.142733
    37  F    3.727505   4.491193   3.019922   7.672538   7.717602
    38  F    4.353306   5.121338   4.462755   6.512771   6.901352
    39  F    2.832347   4.374049   3.518712   7.167648   7.799181
    40  F    7.659396   7.211457   8.170495   2.996258   3.734533
    41  F    7.446514   7.044047   7.487843   4.446204   4.403287
    42  F    8.213496   7.301068   8.198199   3.554484   2.907876
                   36         37         38         39         40
    36  F    0.000000
    37  F    6.635900   0.000000
    38  F    6.063334   2.146871   0.000000
    39  F    6.409700   2.146944   2.140358   0.000000
    40  F    4.476162   7.375294   5.664023   7.049025   0.000000
    41  F    5.119355   6.171815   4.560069   6.381766   2.141131
    42  F    4.417886   7.578851   6.258262   7.821273   2.142628
                   41         42
    41  F    0.000000
    42  F    2.145192   0.000000
 Stoichiometry    C12H13F12O2P2Rh
 Framework group  C1[X(C12H13F12O2P2Rh)]
 Deg. of freedom   120
 Full point group                 C1      NOp   1
 Largest Abelian subgroup         C1      NOp   1
 Largest concise Abelian subgroup C1      NOp   1
                         Standard orientation:                         
 ---------------------------------------------------------------------
 Center     Atomic      Atomic             Coordinates (Angstroms)
 Number     Number       Type             X           Y           Z
 ---------------------------------------------------------------------
      1         45           0        0.022536    0.800637    0.584591
      2          6           0        0.402590    0.291674    2.427661
      3          8           0        0.684481    0.009913    3.511454
      4         15           0        1.783279   -0.416492   -0.264093
      5          6           0        2.721349    0.216254   -1.767228
      6          6           0        1.065156   -2.030722   -0.845026
      7         15           0       -1.462743   -0.918680   -0.299097
      8          6           0       -2.979690   -0.736712   -1.400521
      9          6           0       -0.317864   -1.840014   -1.446516
     10          6           0        3.200398   -0.981269    0.832113
     11          6           0       -2.046137   -2.237826    0.905131
     12          1           0       -2.342688    3.274943   -1.252895
     13          1           0       -0.259648   -1.228523   -2.368315
     14          1           0       -0.771403   -2.806654   -1.734971
     15          1           0        1.759413   -2.516270   -1.556015
     16          1           0        1.015733   -2.684871    0.046805
     17          1           0       -3.094824    2.123988   -0.109739
     18          1           0       -3.157229    3.873571    0.208808
     19          6           0       -2.514918    3.059953   -0.186138
     20          6           0       -1.235225    2.992044    0.625512
     21          6           0       -1.620738    2.750993    2.088326
     22          1           0       -0.752355    2.750230    2.765682
     23          1           0       -2.193256    1.823494    2.246428
     24          1           0       -2.273373    3.593305    2.410549
     25          6           0       -0.467335    4.299792    0.567558
     26          1           0        0.472029    4.239223    1.142774
     27          1           0       -0.222398    4.612636   -0.459499
     28          1           0       -1.080146    5.106994    1.018239
     29          6           0       -0.107419    2.046842   -0.788852
     30          8           0       -0.049983    2.589415   -1.828103
     31          9           0        3.982366   -1.881873    0.258985
     32          9           0        2.682083   -1.530471    1.921137
     33          9           0        3.936668    0.053948    1.191878
     34          9           0       -2.458233   -3.364083    0.346013
     35          9           0       -3.029696   -1.754434    1.644779
     36          9           0       -1.032699   -2.528475    1.709322
     37          9           0        3.313676    1.357215   -1.460160
     38          9           0        1.835663    0.449687   -2.725436
     39          9           0        3.630872   -0.614092   -2.249276
     40          9           0       -3.311423   -1.824096   -2.078460
     41          9           0       -2.696472    0.217059   -2.278372
     42          9           0       -4.030470   -0.351922   -0.697689
 ---------------------------------------------------------------------
 Rotational constants (GHZ):      0.1702931      0.1203203      0.1082105
 Standard basis: def2SVP (5D, 7F)
 There are   529 symmetry adapted cartesian basis functions of A   symmetry.
 There are   496 symmetry adapted basis functions of A   symmetry.
   496 basis functions,   880 primitive gaussians,   529 cartesian basis functions
   128 alpha electrons      128 beta electrons
       nuclear repulsion energy      4363.9609399318 Hartrees.
 NAtoms=   42 NActive=   42 NUniq=   42 SFac= 1.00D+00 NAtFMM=   60 NAOKFM=F Big=F
 Integral buffers will be    131072 words long.
 Raffenetti 2 integral format.
 Two-electron integral symmetry is turned on.
 Standard density basis: W06 (5D, 7F)
  1608 Density fitting functions
 There are  1608 symmetry adapted density basis functions of A   symmetry.
 ------------------------------------------------------------------------------
 Polarizable Continuum Model (PCM)
 =================================
 Model                : PCM (using non-symmetric T matrix).
 Atomic radii         : SMD-Coulomb.
 Polarization charges : Total charges.
 Charge compensation  : None.
 Solution method      : On-the-fly selection.
 Cavity type          : VdW (van der Waals Surface) (Alpha=1.000).
 Cavity algorithm     : GePol (No added spheres)
                        Default sphere list used, NSphG=   42.
                        Lebedev-Laikov grids with approx.  5.0 points / Ang**2.
                        Smoothing algorithm: Karplus/York (Gamma=1.0000).
                        Polarization charges: spherical gaussians, with
                                              point-specific exponents (IZeta= 3).
                        Self-potential: point-specific (ISelfS= 7).
                        Self-field    : sphere-specific E.n sum rule (ISelfD= 2).
 1st derivatives      : Analytical E(r).r(x)/FMM algorithm (CHGder, D1EAlg=3).
                        Cavity 1st derivative terms included.
 Solvent              : Benzene, Eps=   2.270600 Eps(inf)=   2.253301
 ------------------------------------------------------------------------------
 ------------------------------------------------------------------------------
 Atomic radii for non-electrostatic terms: SMD-CDS.
 ------------------------------------------------------------------------------
 Nuclear repulsion after PCM non-electrostatic terms =     4363.9609827962 Hartrees.
 One-electron integrals computed using PRISM.
   1 Symmetry operations used in ECPInt.
 ECPInt:  NShTT=   24753 NPrTT=   93966 LenC2=   21504 LenP2D=   53141.
 LDataN:  DoStor=T MaxTD1= 7 Len=  274
 NBasis=   496 RedAO= T EigKep=  1.17D-03  NBF=   496
 NBsUse=   496 1.00D-06 EigRej= -1.00D+00 NBFU=   496
 Defaulting to unpruned grid for atomic number  45.
 ExpMin= 3.71D-02 ExpMax= 8.00D+03 ExpMxC= 1.20D+03 IAcc=3 IRadAn=         5 AccDes= 0.00D+00
 Harris functional with IExCor= 1009 and IRadAn=       5 diagonalized for initial guess.
 HarFok:  IExCor= 1009 AccDes= 0.00D+00 IRadAn=         5 IDoV= 1 UseB2=F ITyADJ=14
 ICtDFT=  3500011 ScaDFX=  1.000000  1.000000  1.000000  1.000000
 Defaulting to unpruned grid for atomic number  45.
 Defaulting to unpruned grid for atomic number  45.
 Defaulting to unpruned grid for atomic number  45.
 Defaulting to unpruned grid for atomic number  45.
 Defaulting to unpruned grid for atomic number  45.
 Defaulting to unpruned grid for atomic number  45.
 Defaulting to unpruned grid for atomic number  45.
 Defaulting to unpruned grid for atomic number  45.
 Defaulting to unpruned grid for atomic number  45.
 Defaulting to unpruned grid for atomic number  45.
 Defaulting to unpruned grid for atomic number  45.
 Defaulting to unpruned grid for atomic number  45.
 Defaulting to unpruned grid for atomic number  45.
 Defaulting to unpruned grid for atomic number  45.
 Defaulting to unpruned grid for atomic number  45.
 Defaulting to unpruned grid for atomic number  45.
 Defaulting to unpruned grid for atomic number  45.
 Defaulting to unpruned grid for atomic number  45.
 Defaulting to unpruned grid for atomic number  45.
 Defaulting to unpruned grid for atomic number  45.
 FoFCou: FMM=F IPFlag=           0 FMFlag=      100000 FMFlg1=           0
         NFxFlg=           0 DoJE=T BraDBF=F KetDBF=T FulRan=T
         wScrn=  0.000000 ICntrl=     500 IOpCl=  0 I1Cent=   200000004 NGrid=           0
         NMat0=    1 NMatS0=      1 NMatT0=    0 NMatD0=    1 NMtDS0=    0 NMtDT0=    0
 Petite list used in FoFCou.
 Requested convergence on RMS density matrix=1.00D-08 within 128 cycles.
 Requested convergence on MAX density matrix=1.00D-06.
 Requested convergence on             energy=1.00D-06.
 No special actions if energy rises.
 Defaulting to unpruned grid for atomic number  45.
 Defaulting to unpruned grid for atomic number  45.
 Defaulting to unpruned grid for atomic number  45.
 Defaulting to unpruned grid for atomic number  45.
 Defaulting to unpruned grid for atomic number  45.
 Defaulting to unpruned grid for atomic number  45.
 Defaulting to unpruned grid for atomic number  45.
 Defaulting to unpruned grid for atomic number  45.
 Defaulting to unpruned grid for atomic number  45.
 Defaulting to unpruned grid for atomic number  45.
 Defaulting to unpruned grid for atomic number  45.
 Defaulting to unpruned grid for atomic number  45.
 Defaulting to unpruned grid for atomic number  45.
 Defaulting to unpruned grid for atomic number  45.
 Defaulting to unpruned grid for atomic number  45.
 Defaulting to unpruned grid for atomic number  45.
 Defaulting to unpruned grid for atomic number  45.
 Defaulting to unpruned grid for atomic number  45.
 Defaulting to unpruned grid for atomic number  45.
 Defaulting to unpruned grid for atomic number  45.
 Inv3:  Mode=1 IEnd=    32078700.
 Iteration    1 A*A^-1 deviation from unit magnitude is 6.00D-15 for   3252.
 Iteration    1 A*A^-1 deviation from orthogonality  is 2.33D-15 for   2519    502.
 Iteration    1 A^-1*A deviation from unit magnitude is 6.11D-15 for   3252.
 Iteration    1 A^-1*A deviation from orthogonality  is 1.67D-15 for    907    580.
 Error on total polarization charges =  0.01205
 SCF Done:  E(RM06) =  -2604.62526374     A.U. after   16 cycles
            NFock= 16  Conv=0.55D-08     -V/T= 2.0334
 SMD-CDS (non-electrostatic) energy       (kcal/mol) =       0.03
 (included in total energy above)

 **********************************************************************

            Population analysis using the SCF density.

 **********************************************************************

 Orbital symmetries:
       Occupied  (A) (A) (A) (A) (A) (A) (A) (A) (A) (A) (A) (A)
                 (A) (A) (A) (A) (A) (A) (A) (A) (A) (A) (A) (A)
                 (A) (A) (A) (A) (A) (A) (A) (A) (A) (A) (A) (A)
                 (A) (A) (A) (A) (A) (A) (A) (A) (A) (A) (A) (A)
                 (A) (A) (A) (A) (A) (A) (A) (A) (A) (A) (A) (A)
                 (A) (A) (A) (A) (A) (A) (A) (A) (A) (A) (A) (A)
                 (A) (A) (A) (A) (A) (A) (A) (A) (A) (A) (A) (A)
                 (A) (A) (A) (A) (A) (A) (A) (A) (A) (A) (A) (A)
                 (A) (A) (A) (A) (A) (A) (A) (A) (A) (A) (A) (A)
                 (A) (A) (A) (A) (A) (A) (A) (A) (A) (A) (A) (A)
                 (A) (A) (A) (A) (A) (A) (A) (A)
       Virtual   (A) (A) (A) (A) (A) (A) (A) (A) (A) (A) (A) (A)
                 (A) (A) (A) (A) (A) (A) (A) (A) (A) (A) (A) (A)
                 (A) (A) (A) (A) (A) (A) (A) (A) (A) (A) (A) (A)
                 (A) (A) (A) (A) (A) (A) (A) (A) (A) (A) (A) (A)
                 (A) (A) (A) (A) (A) (A) (A) (A) (A) (A) (A) (A)
                 (A) (A) (A) (A) (A) (A) (A) (A) (A) (A) (A) (A)
                 (A) (A) (A) (A) (A) (A) (A) (A) (A) (A) (A) (A)
                 (A) (A) (A) (A) (A) (A) (A) (A) (A) (A) (A) (A)
                 (A) (A) (A) (A) (A) (A) (A) (A) (A) (A) (A) (A)
                 (A) (A) (A) (A) (A) (A) (A) (A) (A) (A) (A) (A)
                 (A) (A) (A) (A) (A) (A) (A) (A) (A) (A) (A) (A)
                 (A) (A) (A) (A) (A) (A) (A) (A) (A) (A) (A) (A)
                 (A) (A) (A) (A) (A) (A) (A) (A) (A) (A) (A) (A)
                 (A) (A) (A) (A) (A) (A) (A) (A) (A) (A) (A) (A)
                 (A) (A) (A) (A) (A) (A) (A) (A) (A) (A) (A) (A)
                 (A) (A) (A) (A) (A) (A) (A) (A) (A) (A) (A) (A)
                 (A) (A) (A) (A) (A) (A) (A) (A) (A) (A) (A) (A)
                 (A) (A) (A) (A) (A) (A) (A) (A) (A) (A) (A) (A)
                 (A) (A) (A) (A) (A) (A) (A) (A) (A) (A) (A) (A)
                 (A) (A) (A) (A) (A) (A) (A) (A) (A) (A) (A) (A)
                 (A) (A) (A) (A) (A) (A) (A) (A) (A) (A) (A) (A)
                 (A) (A) (A) (A) (A) (A) (A) (A) (A) (A) (A) (A)
                 (A) (A) (A) (A) (A) (A) (A) (A) (A) (A) (A) (A)
                 (A) (A) (A) (A) (A) (A) (A) (A) (A) (A) (A) (A)
                 (A) (A) (A) (A) (A) (A) (A) (A) (A) (A) (A) (A)
                 (A) (A) (A) (A) (A) (A) (A) (A) (A) (A) (A) (A)
                 (A) (A) (A) (A) (A) (A) (A) (A) (A) (A) (A) (A)
                 (A) (A) (A) (A) (A) (A) (A) (A) (A) (A) (A) (A)
                 (A) (A) (A) (A) (A) (A) (A) (A) (A) (A) (A) (A)
                 (A) (A) (A) (A) (A) (A) (A) (A) (A) (A) (A) (A)
                 (A) (A) (A) (A) (A) (A) (A) (A)
 The electronic state is 1-A.
 Alpha  occ. eigenvalues --  -77.29165 -77.28001 -24.84367 -24.84357 -24.84321
 Alpha  occ. eigenvalues --  -24.84308 -24.84298 -24.84257 -24.84175 -24.84146
 Alpha  occ. eigenvalues --  -24.84051 -24.83990 -24.83971 -24.83951 -19.29208
 Alpha  occ. eigenvalues --  -19.25635 -10.52358 -10.52215 -10.52048 -10.51944
 Alpha  occ. eigenvalues --  -10.36193 -10.35788 -10.30263 -10.30132 -10.28716
 Alpha  occ. eigenvalues --  -10.24293 -10.23827 -10.23643  -6.73941  -6.72830
 Alpha  occ. eigenvalues --   -4.86136  -4.86032  -4.85710  -4.85037  -4.84939
 Alpha  occ. eigenvalues --   -4.84539  -3.24203  -2.02666  -2.00429  -1.98796
 Alpha  occ. eigenvalues --   -1.37711  -1.37522  -1.37442  -1.37298  -1.28647
 Alpha  occ. eigenvalues --   -1.28555  -1.28413  -1.28371  -1.28359  -1.28305
 Alpha  occ. eigenvalues --   -1.28212  -1.28105  -1.13429  -1.10123  -0.84880
 Alpha  occ. eigenvalues --   -0.81442  -0.80308  -0.77138  -0.74642  -0.74482
 Alpha  occ. eigenvalues --   -0.71665  -0.69702  -0.68666  -0.68379  -0.65979
 Alpha  occ. eigenvalues --   -0.65206  -0.65044  -0.65005  -0.64952  -0.64805
 Alpha  occ. eigenvalues --   -0.64700  -0.64601  -0.63999  -0.63040  -0.62672
 Alpha  occ. eigenvalues --   -0.59452  -0.56930  -0.56378  -0.53478  -0.53226
 Alpha  occ. eigenvalues --   -0.52885  -0.52660  -0.52531  -0.52429  -0.52242
 Alpha  occ. eigenvalues --   -0.52140  -0.52032  -0.51940  -0.50305  -0.49767
 Alpha  occ. eigenvalues --   -0.49358  -0.49166  -0.48943  -0.48644  -0.48369
 Alpha  occ. eigenvalues --   -0.48203  -0.48102  -0.48006  -0.47460  -0.47283
 Alpha  occ. eigenvalues --   -0.47113  -0.46961  -0.46210  -0.46192  -0.45892
 Alpha  occ. eigenvalues --   -0.45870  -0.45300  -0.44787  -0.44453  -0.43679
 Alpha  occ. eigenvalues --   -0.42820  -0.40874  -0.39519  -0.39183  -0.38941
 Alpha  occ. eigenvalues --   -0.38480  -0.37980  -0.37755  -0.37144  -0.36712
 Alpha  occ. eigenvalues --   -0.35306  -0.34568  -0.34103  -0.30279  -0.27940
 Alpha  occ. eigenvalues --   -0.27661  -0.22460  -0.21515
 Alpha virt. eigenvalues --   -0.05229  -0.02665  -0.01586  -0.00247   0.01054
 Alpha virt. eigenvalues --    0.01651   0.01820   0.02185   0.04475   0.05092
 Alpha virt. eigenvalues --    0.05927   0.06477   0.07286   0.07534   0.07688
 Alpha virt. eigenvalues --    0.08041   0.09712   0.10638   0.11518   0.11812
 Alpha virt. eigenvalues --    0.12518   0.12902   0.13124   0.13609   0.14408
 Alpha virt. eigenvalues --    0.15088   0.15394   0.17253   0.17552   0.17752
 Alpha virt. eigenvalues --    0.18697   0.19026   0.19688   0.20183   0.21088
 Alpha virt. eigenvalues --    0.21728   0.22150   0.22413   0.23317   0.23669
 Alpha virt. eigenvalues --    0.23780   0.24266   0.25058   0.25881   0.27123
 Alpha virt. eigenvalues --    0.31475   0.32748   0.33718   0.34544   0.35156
 Alpha virt. eigenvalues --    0.36222   0.36784   0.36934   0.37952   0.38166
 Alpha virt. eigenvalues --    0.39810   0.40665   0.40832   0.41532   0.42269
 Alpha virt. eigenvalues --    0.43038   0.44526   0.44977   0.45605   0.46543
 Alpha virt. eigenvalues --    0.46772   0.48581   0.49787   0.50777   0.51210
 Alpha virt. eigenvalues --    0.51633   0.52443   0.53543   0.54788   0.55045
 Alpha virt. eigenvalues --    0.56015   0.56768   0.57224   0.57842   0.58852
 Alpha virt. eigenvalues --    0.59486   0.60455   0.60756   0.60894   0.61435
 Alpha virt. eigenvalues --    0.61584   0.61711   0.62508   0.63104   0.63888
 Alpha virt. eigenvalues --    0.64177   0.64661   0.65368   0.66124   0.66919
 Alpha virt. eigenvalues --    0.67222   0.67834   0.68279   0.68950   0.69549
 Alpha virt. eigenvalues --    0.70097   0.70526   0.71048   0.71921   0.72834
 Alpha virt. eigenvalues --    0.73299   0.74451   0.74758   0.75306   0.77035
 Alpha virt. eigenvalues --    0.78375   0.79411   0.80246   0.80929   0.81815
 Alpha virt. eigenvalues --    0.83755   0.84115   0.85763   0.86985   0.88417
 Alpha virt. eigenvalues --    0.88691   0.89930   0.90732   0.91692   0.92968
 Alpha virt. eigenvalues --    0.95127   0.96583   0.97659   1.01429   1.02074
 Alpha virt. eigenvalues --    1.03888   1.05514   1.06023   1.06994   1.08141
 Alpha virt. eigenvalues --    1.08490   1.08855   1.09582   1.10317   1.10856
 Alpha virt. eigenvalues --    1.11349   1.12217   1.12724   1.12949   1.14400
 Alpha virt. eigenvalues --    1.15129   1.15418   1.16035   1.16616   1.17799
 Alpha virt. eigenvalues --    1.19493   1.19856   1.20241   1.20942   1.21100
 Alpha virt. eigenvalues --    1.22954   1.24261   1.25862   1.26198   1.27945
 Alpha virt. eigenvalues --    1.28498   1.29846   1.31718   1.32446   1.34534
 Alpha virt. eigenvalues --    1.35129   1.36394   1.36786   1.37882   1.38811
 Alpha virt. eigenvalues --    1.39655   1.40352   1.40698   1.41371   1.42006
 Alpha virt. eigenvalues --    1.42502   1.42531   1.43084   1.45157   1.47014
 Alpha virt. eigenvalues --    1.49600   1.49698   1.51294   1.51333   1.52789
 Alpha virt. eigenvalues --    1.53193   1.53704   1.54014   1.55338   1.56231
 Alpha virt. eigenvalues --    1.56564   1.56907   1.57903   1.58421   1.59076
 Alpha virt. eigenvalues --    1.59936   1.61006   1.61064   1.62184   1.62997
 Alpha virt. eigenvalues --    1.63485   1.64358   1.66200   1.67156   1.68436
 Alpha virt. eigenvalues --    1.69924   1.71422   1.72676   1.74152   1.74281
 Alpha virt. eigenvalues --    1.76365   1.76408   1.77049   1.77470   1.78744
 Alpha virt. eigenvalues --    1.79808   1.80477   1.80565   1.81468   1.82176
 Alpha virt. eigenvalues --    1.82469   1.84134   1.84454   1.85153   1.86493
 Alpha virt. eigenvalues --    1.86863   1.87415   1.88495   1.89616   1.90018
 Alpha virt. eigenvalues --    1.90796   1.92024   1.92996   1.93489   1.94219
 Alpha virt. eigenvalues --    1.94676   1.95462   1.95561   1.96400   1.96883
 Alpha virt. eigenvalues --    1.97339   2.01055   2.01538   2.02663   2.03258
 Alpha virt. eigenvalues --    2.05530   2.06362   2.06846   2.07814   2.08222
 Alpha virt. eigenvalues --    2.08639   2.09815   2.10642   2.11504   2.14097
 Alpha virt. eigenvalues --    2.15410   2.15869   2.16226   2.17295   2.18476
 Alpha virt. eigenvalues --    2.19020   2.20163   2.20904   2.21291   2.21529
 Alpha virt. eigenvalues --    2.22469   2.22991   2.24644   2.33309   2.37833
 Alpha virt. eigenvalues --    2.39058   2.40582   2.41691   2.43504   2.45014
 Alpha virt. eigenvalues --    2.53148   2.54483   2.56534   2.59743   2.60320
 Alpha virt. eigenvalues --    2.61557   2.63463   2.63718   2.65246   2.66694
 Alpha virt. eigenvalues --    2.67584   2.68231   2.70195   2.71434   2.77590
 Alpha virt. eigenvalues --    2.78219   2.81200   2.81995   2.84079   2.84616
 Alpha virt. eigenvalues --    2.89473   2.89628   2.90753   2.91650   2.99234
 Alpha virt. eigenvalues --    2.99356   2.99504   2.99573   2.99678   3.00585
 Alpha virt. eigenvalues --    3.02773   3.02919   3.03029   3.03277   3.03627
 Alpha virt. eigenvalues --    3.03961   3.04018   3.04102   3.04273   3.04320
 Alpha virt. eigenvalues --    3.04336   3.04543   3.05028   3.05300   3.05527
 Alpha virt. eigenvalues --    3.05621   3.05707   3.05817   3.05992   3.06201
 Alpha virt. eigenvalues --    3.07065   3.07674   3.09598   3.09861   3.15576
 Alpha virt. eigenvalues --    3.15987   3.16031   3.16267   3.16325   3.16411
 Alpha virt. eigenvalues --    3.16454   3.16696   3.16972   3.17896   3.18230
 Alpha virt. eigenvalues --    3.22955   3.40257   3.40627   3.41944   3.42601
 Alpha virt. eigenvalues --    3.53988   3.54309   3.54914   3.55249   3.55761
 Alpha virt. eigenvalues --    3.56324   3.59114   3.59450   3.65134   3.68160
 Alpha virt. eigenvalues --    3.68356   3.68741   3.69070   3.70251   3.85441
 Alpha virt. eigenvalues --    3.85659   3.86065   3.86438   3.86504   3.86954
 Alpha virt. eigenvalues --    3.87196   3.88257  48.92852
          Condensed to atoms (all electrons):
               1          2          3          4          5          6
     1  Rh  16.884293   0.135971   0.004575   0.041745  -0.023474  -0.019926
     2  C    0.135971   5.198798   0.666478  -0.027606   0.000227   0.003487
     3  O    0.004575   0.666478   7.411922  -0.003403   0.000000   0.000038
     4  P    0.041745  -0.027606  -0.003403  14.619548   0.254493   0.235349
     5  C   -0.023474   0.000227   0.000000   0.254493   4.316611  -0.026000
     6  C   -0.019926   0.003487   0.000038   0.235349  -0.026000   4.988931
     7  P    0.014277  -0.010178  -0.000979  -0.012491   0.001769  -0.079185
     8  C   -0.016994   0.000189   0.000000   0.000297  -0.000012   0.003551
     9  C   -0.024752   0.000312   0.000007  -0.079253  -0.001531   0.360861
    10  C   -0.023809  -0.004311   0.001003   0.264835  -0.002195  -0.022536
    11  C   -0.022197  -0.002045   0.000053   0.001435  -0.000019  -0.001287
    12  H   -0.004237  -0.000024   0.000000   0.000088  -0.000006   0.000000
    13  H    0.004256  -0.000080   0.000000  -0.002891   0.000571  -0.016472
    14  H   -0.001156  -0.000062   0.000000   0.007688  -0.000129  -0.010274
    15  H   -0.004405   0.000008  -0.000001  -0.010014  -0.002959   0.351378
    16  H    0.006328  -0.001005  -0.000072  -0.023912   0.002583   0.372308
    17  H    0.003113  -0.000195  -0.000001   0.000079  -0.000001  -0.000002
    18  H    0.000297   0.000081   0.000000  -0.000016   0.000000   0.000000
    19  C   -0.024781  -0.000482   0.000000   0.000459  -0.000001  -0.000003
    20  C    0.032878   0.024347  -0.000177  -0.010179   0.000054   0.000109
    21  C   -0.017935  -0.018240   0.000053   0.000590  -0.000002   0.000000
    22  H   -0.008915  -0.002801   0.000103   0.000117   0.000001  -0.000001
    23  H   -0.005846  -0.004928  -0.000188   0.000010   0.000000   0.000003
    24  H   -0.002389   0.001837  -0.000041  -0.000037   0.000000   0.000000
    25  C   -0.006282  -0.002790   0.000010   0.000407  -0.000001  -0.000002
    26  H    0.000744  -0.000368  -0.000018   0.000146   0.000001  -0.000001
    27  H    0.000483  -0.000173   0.000000   0.000065  -0.000006  -0.000001
    28  H   -0.001353   0.000222  -0.000001  -0.000021   0.000000   0.000000
    29  C    0.076962   0.002797  -0.000017   0.038372  -0.006505   0.000198
    30  O    0.005208   0.000107   0.000000  -0.007161   0.002023   0.000096
    31  F    0.005264   0.000043   0.000000  -0.054423   0.000834   0.004687
    32  F    0.011731   0.004428  -0.000963  -0.048454   0.001050  -0.001530
    33  F    0.017511  -0.000451   0.000009  -0.062472   0.004877   0.001191
    34  F    0.005540   0.000004   0.000000  -0.000021   0.000000  -0.000547
    35  F    0.016812  -0.000285   0.000003  -0.000008   0.000000  -0.000015
    36  F    0.024375  -0.000494  -0.000056  -0.001108  -0.000001   0.000256
    37  F    0.015403  -0.000022   0.000000  -0.056250   0.324581   0.001127
    38  F    0.011460  -0.000007   0.000000  -0.050781   0.313962   0.003624
    39  F    0.004595  -0.000001   0.000000  -0.048096   0.317038  -0.001531
    40  F    0.003298   0.000000   0.000000  -0.000008   0.000000   0.000195
    41  F    0.015024   0.000001   0.000000  -0.000042  -0.000002   0.000020
    42  F    0.007770  -0.000003   0.000000  -0.000002   0.000000  -0.000008
               7          8          9         10         11         12
     1  Rh   0.014277  -0.016994  -0.024752  -0.023809  -0.022197  -0.004237
     2  C   -0.010178   0.000189   0.000312  -0.004311  -0.002045  -0.000024
     3  O   -0.000979   0.000000   0.000007   0.001003   0.000053   0.000000
     4  P   -0.012491   0.000297  -0.079253   0.264835   0.001435   0.000088
     5  C    0.001769  -0.000012  -0.001531  -0.002195  -0.000019  -0.000006
     6  C   -0.079185   0.003551   0.360861  -0.022536  -0.001287   0.000000
     7  P   14.712509   0.268485   0.267265   0.000218   0.244493  -0.000472
     8  C    0.268485   4.281248  -0.021294  -0.000001   0.001594   0.000318
     9  C    0.267265  -0.021294   4.952771   0.003761  -0.022291  -0.000015
    10  C    0.000218  -0.000001   0.003761   4.304324  -0.000023   0.000000
    11  C    0.244493   0.001594  -0.022291  -0.000023   4.341641   0.000002
    12  H   -0.000472   0.000318  -0.000015   0.000000   0.000002   0.622771
    13  H   -0.030899   0.001686   0.376276   0.000080   0.002595  -0.000002
    14  H   -0.012062  -0.005394   0.358573  -0.000049  -0.005737   0.000000
    15  H    0.007575  -0.000045  -0.006001  -0.003613  -0.000184   0.000000
    16  H   -0.005790   0.000060  -0.016515  -0.000245   0.002531   0.000000
    17  H   -0.000736   0.002173  -0.000013   0.000000  -0.000182  -0.024457
    18  H    0.000098  -0.000050   0.000001   0.000000   0.000000  -0.023579
    19  C   -0.003126   0.000787  -0.000058   0.000000   0.000033   0.393120
    20  C   -0.002559  -0.000153   0.000275   0.000035  -0.000045  -0.030906
    21  C   -0.002781   0.000030  -0.000013  -0.000004   0.000046   0.008456
    22  H    0.000043   0.000005  -0.000005  -0.000009  -0.000002  -0.000415
    23  H    0.003237  -0.000011  -0.000038  -0.000001  -0.000057   0.000272
    24  H    0.000014   0.000000   0.000000   0.000000   0.000000  -0.000162
    25  C    0.000583  -0.000006  -0.000004  -0.000001  -0.000001  -0.004438
    26  H   -0.000009   0.000000  -0.000001  -0.000002   0.000000   0.000089
    27  H    0.000055  -0.000001  -0.000001   0.000000   0.000000   0.004160
    28  H   -0.000021   0.000000   0.000000   0.000000   0.000000  -0.000975
    29  C   -0.027435  -0.000705  -0.000188   0.000010   0.000581  -0.002038
    30  O   -0.003018   0.000058   0.000060   0.000002   0.000000   0.008415
    31  F   -0.000005   0.000000   0.000157   0.315837   0.000000   0.000000
    32  F   -0.000060   0.000000  -0.000031   0.314007  -0.000024   0.000000
    33  F    0.000001   0.000000  -0.000011   0.328719   0.000000   0.000000
    34  F   -0.053019   0.002786   0.001246   0.000000   0.313162   0.000000
    35  F   -0.056878   0.003049   0.001115   0.000000   0.319168   0.000000
    36  F   -0.051611   0.001002   0.000063  -0.000074   0.304579   0.000000
    37  F   -0.000009   0.000000  -0.000004   0.001891   0.000000   0.000000
    38  F   -0.000590  -0.000004  -0.001431   0.001045   0.000000  -0.000001
    39  F   -0.000022   0.000000   0.000095   0.003573   0.000000   0.000000
    40  F   -0.053765   0.317023   0.003821   0.000000   0.000631   0.000000
    41  F   -0.055646   0.319798  -0.001043   0.000000   0.001084   0.000387
    42  F   -0.059818   0.324164   0.001152   0.000000   0.004808  -0.000003
              13         14         15         16         17         18
     1  Rh   0.004256  -0.001156  -0.004405   0.006328   0.003113   0.000297
     2  C   -0.000080  -0.000062   0.000008  -0.001005  -0.000195   0.000081
     3  O    0.000000   0.000000  -0.000001  -0.000072  -0.000001   0.000000
     4  P   -0.002891   0.007688  -0.010014  -0.023912   0.000079  -0.000016
     5  C    0.000571  -0.000129  -0.002959   0.002583  -0.000001   0.000000
     6  C   -0.016472  -0.010274   0.351378   0.372308  -0.000002   0.000000
     7  P   -0.030899  -0.012062   0.007575  -0.005790  -0.000736   0.000098
     8  C    0.001686  -0.005394  -0.000045   0.000060   0.002173  -0.000050
     9  C    0.376276   0.358573  -0.006001  -0.016515  -0.000013   0.000001
    10  C    0.000080  -0.000049  -0.003613  -0.000245   0.000000   0.000000
    11  C    0.002595  -0.005737  -0.000184   0.002531  -0.000182   0.000000
    12  H   -0.000002   0.000000   0.000000   0.000000  -0.024457  -0.023579
    13  H    0.555422  -0.014324  -0.006864   0.005158  -0.000011   0.000000
    14  H   -0.014324   0.574094  -0.004168  -0.007092   0.000002   0.000000
    15  H   -0.006864  -0.004168   0.573285  -0.011912   0.000000   0.000000
    16  H    0.005158  -0.007092  -0.011912   0.554350   0.000000   0.000000
    17  H   -0.000011   0.000002   0.000000   0.000000   0.636468  -0.022729
    18  H    0.000000   0.000000   0.000000   0.000000  -0.022729   0.648035
    19  C    0.000011   0.000000   0.000000   0.000000   0.378801   0.374338
    20  C   -0.000050  -0.000004  -0.000003  -0.000004  -0.026643  -0.012888
    21  C    0.000003   0.000000   0.000000   0.000001  -0.002570  -0.011475
    22  H    0.000001   0.000000   0.000000   0.000001   0.000161   0.000158
    23  H    0.000001   0.000001   0.000000   0.000001   0.001671  -0.001366
    24  H    0.000000   0.000000   0.000000   0.000000  -0.001484   0.009539
    25  C    0.000001   0.000000   0.000000   0.000000   0.008556  -0.011404
    26  H    0.000000   0.000000   0.000000   0.000000  -0.000483   0.000078
    27  H    0.000000   0.000000   0.000000   0.000000   0.000097  -0.001478
    28  H    0.000000   0.000000   0.000000   0.000000   0.000023   0.007753
    29  C   -0.000576   0.000048  -0.000012  -0.000118  -0.002538   0.004932
    30  O   -0.000255  -0.000006  -0.000005  -0.000001   0.000208  -0.000039
    31  F   -0.000003  -0.000002   0.003297  -0.000629   0.000000   0.000000
    32  F   -0.000004  -0.000003  -0.000079   0.005041   0.000000   0.000000
    33  F    0.000000   0.000000  -0.000007   0.000100   0.000000   0.000000
    34  F   -0.000013   0.006718  -0.000002   0.000072  -0.000001   0.000000
    35  F   -0.000021   0.000074   0.000000   0.000038  -0.000111   0.000000
    36  F   -0.000062  -0.000229   0.000054   0.005095  -0.000001   0.000000
    37  F    0.000025   0.000000   0.000101  -0.000023   0.000000   0.000000
    38  F    0.006203   0.000035  -0.000617  -0.000032   0.000000   0.000000
    39  F   -0.000050   0.000000   0.006494  -0.000066   0.000000   0.000000
    40  F   -0.000678   0.005704  -0.000002  -0.000002   0.000067   0.000000
    41  F    0.004210  -0.000042  -0.000001  -0.000001  -0.000893   0.000025
    42  F    0.000064   0.000020   0.000000   0.000000   0.009045   0.000010
              19         20         21         22         23         24
     1  Rh  -0.024781   0.032878  -0.017935  -0.008915  -0.005846  -0.002389
     2  C   -0.000482   0.024347  -0.018240  -0.002801  -0.004928   0.001837
     3  O    0.000000  -0.000177   0.000053   0.000103  -0.000188  -0.000041
     4  P    0.000459  -0.010179   0.000590   0.000117   0.000010  -0.000037
     5  C   -0.000001   0.000054  -0.000002   0.000001   0.000000   0.000000
     6  C   -0.000003   0.000109   0.000000  -0.000001   0.000003   0.000000
     7  P   -0.003126  -0.002559  -0.002781   0.000043   0.003237   0.000014
     8  C    0.000787  -0.000153   0.000030   0.000005  -0.000011   0.000000
     9  C   -0.000058   0.000275  -0.000013  -0.000005  -0.000038   0.000000
    10  C    0.000000   0.000035  -0.000004  -0.000009  -0.000001   0.000000
    11  C    0.000033  -0.000045   0.000046  -0.000002  -0.000057   0.000000
    12  H    0.393120  -0.030906   0.008456  -0.000415   0.000272  -0.000162
    13  H    0.000011  -0.000050   0.000003   0.000001   0.000001   0.000000
    14  H    0.000000  -0.000004   0.000000   0.000000   0.000001   0.000000
    15  H    0.000000  -0.000003   0.000000   0.000000   0.000000   0.000000
    16  H    0.000000  -0.000004   0.000001   0.000001   0.000001   0.000000
    17  H    0.378801  -0.026643  -0.002570   0.000161   0.001671  -0.001484
    18  H    0.374338  -0.012888  -0.011475   0.000158  -0.001366   0.009539
    19  C    4.683766   0.326645  -0.035622   0.008445  -0.003174  -0.015612
    20  C    0.326645   5.448539   0.319415  -0.027886  -0.027287  -0.007359
    21  C   -0.035622   0.319415   4.642986   0.396358   0.397087   0.355390
    22  H    0.008445  -0.027886   0.396358   0.633786  -0.025479  -0.023334
    23  H   -0.003174  -0.027287   0.397087  -0.025479   0.626037  -0.023254
    24  H   -0.015612  -0.007359   0.355390  -0.023334  -0.023254   0.685041
    25  C   -0.052410   0.327509  -0.036206  -0.002195   0.007934  -0.016282
    26  H    0.008541  -0.025602  -0.004509   0.003285   0.000077  -0.000813
    27  H   -0.002668  -0.030856   0.008128   0.000361  -0.000421  -0.000250
    28  H   -0.010859  -0.014037  -0.010434  -0.001740   0.000283   0.009521
    29  C   -0.034487   0.187910  -0.017564  -0.000861  -0.000264   0.002632
    30  O   -0.005911  -0.033109   0.000748  -0.000020   0.000001  -0.000049
    31  F    0.000000   0.000000   0.000000   0.000000   0.000000   0.000000
    32  F    0.000000   0.000000   0.000000   0.000001   0.000000   0.000000
    33  F    0.000000   0.000000   0.000000   0.000000   0.000000   0.000000
    34  F    0.000000   0.000000   0.000000   0.000000  -0.000001   0.000000
    35  F   -0.000003   0.000002  -0.000025  -0.000009  -0.000352  -0.000001
    36  F    0.000000   0.000001   0.000004   0.000000  -0.000053   0.000000
    37  F    0.000000   0.000000   0.000000   0.000000   0.000000   0.000000
    38  F   -0.000001   0.000021   0.000000   0.000000   0.000000   0.000000
    39  F    0.000000   0.000000   0.000000   0.000000   0.000000   0.000000
    40  F   -0.000006   0.000000   0.000000   0.000000  -0.000001   0.000000
    41  F    0.000636  -0.000451   0.000001   0.000000  -0.000021   0.000000
    42  F   -0.002566   0.000058   0.000003  -0.000001  -0.000168  -0.000001
              25         26         27         28         29         30
     1  Rh  -0.006282   0.000744   0.000483  -0.001353   0.076962   0.005208
     2  C   -0.002790  -0.000368  -0.000173   0.000222   0.002797   0.000107
     3  O    0.000010  -0.000018   0.000000  -0.000001  -0.000017   0.000000
     4  P    0.000407   0.000146   0.000065  -0.000021   0.038372  -0.007161
     5  C   -0.000001   0.000001  -0.000006   0.000000  -0.006505   0.002023
     6  C   -0.000002  -0.000001  -0.000001   0.000000   0.000198   0.000096
     7  P    0.000583  -0.000009   0.000055  -0.000021  -0.027435  -0.003018
     8  C   -0.000006   0.000000  -0.000001   0.000000  -0.000705   0.000058
     9  C   -0.000004  -0.000001  -0.000001   0.000000  -0.000188   0.000060
    10  C   -0.000001  -0.000002   0.000000   0.000000   0.000010   0.000002
    11  C   -0.000001   0.000000   0.000000   0.000000   0.000581   0.000000
    12  H   -0.004438   0.000089   0.004160  -0.000975  -0.002038   0.008415
    13  H    0.000001   0.000000   0.000000   0.000000  -0.000576  -0.000255
    14  H    0.000000   0.000000   0.000000   0.000000   0.000048  -0.000006
    15  H    0.000000   0.000000   0.000000   0.000000  -0.000012  -0.000005
    16  H    0.000000   0.000000   0.000000   0.000000  -0.000118  -0.000001
    17  H    0.008556  -0.000483   0.000097   0.000023  -0.002538   0.000208
    18  H   -0.011404   0.000078  -0.001478   0.007753   0.004932  -0.000039
[...]
    31  F   -0.000004  -0.000004   0.003387  -0.000410   0.000000   0.000000
    32  F   -0.000002  -0.000003  -0.000017   0.004685   0.000000   0.000000
    33  F    0.000000   0.000000  -0.000015   0.000152   0.000000   0.000000
    34  F   -0.000095   0.006885   0.000000  -0.000067  -0.000002   0.000000
    35  F   -0.000024   0.000147   0.000000   0.000016  -0.000133   0.000000
    36  F    0.000009  -0.000807   0.000055   0.005362  -0.000001   0.000000
    37  F    0.000017   0.000000   0.000143  -0.000025   0.000000   0.000000
    38  F    0.004206   0.000035  -0.000868  -0.000024   0.000000   0.000000
    39  F   -0.000041  -0.000001   0.007420  -0.000098   0.000000   0.000000
    40  F   -0.000013   0.004221  -0.000003  -0.000004   0.000075   0.000000
    41  F    0.003778   0.000019  -0.000001  -0.000001  -0.000967   0.000021
    42  F    0.000131  -0.000011   0.000000   0.000000   0.009902   0.000011
              19         20         21         22         23         24
     1  Rh  -0.025449   0.039271  -0.020286  -0.013017  -0.004753  -0.001600
     2  C   -0.000581   0.024070  -0.019208  -0.001280  -0.005511   0.002054
     3  O    0.000001  -0.000207  -0.000372   0.000305  -0.000209  -0.000051
     4  P    0.000510  -0.010348   0.000621   0.000118   0.000046  -0.000039
     5  C   -0.000002   0.000087  -0.000003   0.000001   0.000000   0.000000
     6  C   -0.000003   0.000101  -0.000001  -0.000001   0.000001   0.000000
     7  P   -0.003862  -0.000212  -0.003784   0.000175   0.004202   0.000081
     8  C    0.000844  -0.000134   0.000015   0.000005  -0.000073   0.000000
     9  C   -0.000052   0.000224  -0.000020  -0.000005  -0.000033   0.000000
    10  C    0.000000   0.000026  -0.000003  -0.000006  -0.000001   0.000000
    11  C    0.000050  -0.000071   0.000052   0.000001  -0.000056   0.000000
    12  H    0.394559  -0.030435   0.008084  -0.000409   0.000244  -0.000110
    13  H    0.000009  -0.000028   0.000002   0.000000   0.000001   0.000000
    14  H    0.000000  -0.000003   0.000000   0.000000   0.000002   0.000000
    15  H    0.000000  -0.000003   0.000000   0.000000   0.000000   0.000000
    16  H    0.000000  -0.000002   0.000000   0.000001   0.000000   0.000000
    17  H    0.378325  -0.025831  -0.002478   0.000175   0.001361  -0.001474
    18  H    0.372892  -0.013421  -0.011276   0.000163  -0.001326   0.009562
    19  C    4.682736   0.325132  -0.032968   0.008347  -0.003879  -0.015729
    20  C    0.325132   5.442391   0.320284  -0.028125  -0.025906  -0.007575
    21  C   -0.032968   0.320284   4.637425   0.398633   0.396021   0.357335
    22  H    0.008347  -0.028125   0.398633   0.634756  -0.026207  -0.022933
    23  H   -0.003879  -0.025906   0.396021  -0.026207   0.626314  -0.022575
    24  H   -0.015729  -0.007575   0.357335  -0.022933  -0.022575   0.678393
    25  C   -0.051022   0.326512  -0.035617  -0.001593   0.007717  -0.016063
    26  H    0.008337  -0.024144  -0.004415   0.003430   0.000005  -0.000808
    27  H   -0.002787  -0.029983   0.007863   0.000350  -0.000412  -0.000226
    28  H   -0.010482  -0.014393  -0.009937  -0.001922   0.000328   0.009228
    29  C   -0.036954   0.181878  -0.016243  -0.001017  -0.000303   0.002553
    30  O   -0.006319  -0.031044   0.000666  -0.000011  -0.000001  -0.000045
    31  F    0.000000   0.000000   0.000000   0.000000   0.000000   0.000000
    32  F    0.000000   0.000000   0.000000   0.000001   0.000000   0.000000
    33  F    0.000000   0.000000   0.000000   0.000000   0.000000   0.000000
    34  F    0.000000   0.000000   0.000000   0.000000  -0.000001   0.000000
    35  F   -0.000008   0.000011  -0.000272  -0.000038   0.000420  -0.000005
    36  F    0.000000   0.000000   0.000002   0.000000  -0.000030   0.000000
    37  F    0.000000   0.000001   0.000000   0.000000   0.000000   0.000000
    38  F   -0.000001   0.000013   0.000000   0.000000   0.000000   0.000000
    39  F    0.000000   0.000000   0.000000   0.000000   0.000000   0.000000
    40  F   -0.000006   0.000000   0.000000   0.000000  -0.000001   0.000000
    41  F    0.000482  -0.000372   0.000002   0.000000  -0.000027   0.000000
    42  F   -0.002784   0.000069  -0.000004  -0.000001  -0.000174  -0.000001
              25         26         27         28         29         30
     1  Rh  -0.009072   0.000758   0.000217  -0.000870   0.088170   0.000196
     2  C   -0.003083  -0.000449  -0.000167   0.000266   0.001951   0.000076
     3  O    0.000014  -0.000019   0.000000  -0.000002  -0.000019   0.000000
     4  P    0.000423   0.000139   0.000051  -0.000021   0.038042  -0.006370
     5  C   -0.000001   0.000001  -0.000005   0.000000  -0.005996   0.002023
     6  C   -0.000002  -0.000001   0.000000   0.000000   0.000769   0.000055
     7  P    0.000665  -0.000009   0.000055  -0.000021  -0.020023  -0.002584
     8  C   -0.000007   0.000000  -0.000001   0.000000  -0.000892   0.000066
     9  C   -0.000002  -0.000001   0.000000   0.000000   0.000783   0.000043
    10  C   -0.000001  -0.000001   0.000000   0.000000   0.000047   0.000003
    11  C   -0.000001   0.000000   0.000000   0.000000   0.000576   0.000000
    12  H   -0.004657   0.000071   0.003935  -0.000822  -0.000878   0.007401
    13  H    0.000001   0.000000   0.000000   0.000000  -0.000578  -0.000103
    14  H    0.000000   0.000000   0.000000   0.000000   0.000024  -0.000001
    15  H    0.000000   0.000000   0.000000   0.000000  -0.000016  -0.000003
    16  H    0.000000   0.000000   0.000000   0.000000  -0.000080  -0.000001
    17  H    0.008335  -0.000468   0.000100   0.000003  -0.002437   0.000195
    18  H   -0.010980   0.000034  -0.001393   0.007585   0.005012  -0.000022
    19  C   -0.051022   0.008337  -0.002787  -0.010482  -0.036954  -0.006319
    20  C    0.326512  -0.024144  -0.029983  -0.014393   0.181878  -0.031044
    21  C   -0.035617  -0.004415   0.007863  -0.009937  -0.016243   0.000666
    22  H   -0.001593   0.003430   0.000350  -0.001922  -0.001017  -0.000011
    23  H    0.007717   0.000005  -0.000412   0.000328  -0.000303  -0.000001
    24  H   -0.016063  -0.000808  -0.000226   0.009228   0.002553  -0.000045
    25  C    4.670601   0.391617   0.393816   0.370985  -0.055917  -0.004877
    26  H    0.391617   0.610806  -0.022217  -0.021556  -0.001797  -0.000227
    27  H    0.393816  -0.022217   0.617624  -0.024697  -0.004760   0.008162
    28  H    0.370985  -0.021556  -0.024697   0.653930   0.005846  -0.000022
    29  C   -0.055917  -0.001797  -0.004760   0.005846   5.148310   0.647324
    30  O   -0.004877  -0.000227   0.008162  -0.000022   0.647324   7.509884
    31  F    0.000000   0.000000   0.000000   0.000000   0.000001   0.000000
    32  F    0.000000   0.000000   0.000000   0.000000   0.000001   0.000000
    33  F    0.000000  -0.000001   0.000000   0.000000  -0.000011   0.000000
    34  F    0.000000   0.000000   0.000000   0.000000  -0.000001   0.000000
    35  F    0.000000   0.000000   0.000000   0.000000  -0.000005   0.000000
    36  F    0.000000   0.000000   0.000000   0.000000  -0.000004   0.000000
    37  F   -0.000001  -0.000012  -0.000003   0.000000   0.000453  -0.000167
    38  F   -0.000001   0.000000   0.000000   0.000000  -0.000411  -0.000352
    39  F    0.000000   0.000000   0.000000   0.000000   0.000030   0.000000
    40  F    0.000000   0.000000   0.000000   0.000000   0.000004   0.000000
    41  F   -0.000001   0.000000  -0.000002   0.000000   0.000429  -0.000035
    42  F    0.000000   0.000000   0.000000   0.000000   0.000015   0.000000
              31         32         33         34         35         36
     1  Rh   0.005399   0.012867   0.014900   0.005918   0.019831   0.021324
     2  C    0.000025   0.003248  -0.000162   0.000007  -0.000324  -0.000213
     3  O    0.000000  -0.000430   0.000003   0.000000   0.000003  -0.000024
     4  P   -0.057206  -0.048803  -0.062606  -0.000025  -0.000003  -0.001274
     5  C    0.000169   0.001083   0.008481   0.000000   0.000000   0.000000
     6  C    0.008778  -0.001634   0.001291   0.000150  -0.000010  -0.001570
     7  P   -0.000010  -0.000092   0.000000  -0.055897  -0.054502  -0.055898
     8  C    0.000000   0.000000   0.000000   0.010968   0.000485   0.001142
     9  C    0.000315  -0.000034  -0.000011  -0.001724   0.001165   0.006648
    10  C    0.312134   0.315306   0.323078   0.000000   0.000000  -0.000052
    11  C    0.000000  -0.000010   0.000000   0.309229   0.319251   0.298647
    12  H    0.000000   0.000000   0.000000   0.000000   0.000000   0.000000
    13  H   -0.000004  -0.000002   0.000000  -0.000095  -0.000024   0.000009
    14  H   -0.000004  -0.000003   0.000000   0.006885   0.000147  -0.000807
    15  H    0.003387  -0.000017  -0.000015   0.000000   0.000000   0.000055
    16  H   -0.000410   0.004685   0.000152  -0.000067   0.000016   0.005362
    17  H    0.000000   0.000000   0.000000  -0.000002  -0.000133  -0.000001
    18  H    0.000000   0.000000   0.000000   0.000000   0.000000   0.000000
    19  C    0.000000   0.000000   0.000000   0.000000  -0.000008   0.000000
    20  C    0.000000   0.000000   0.000000   0.000000   0.000011   0.000000
    21  C    0.000000   0.000000   0.000000   0.000000  -0.000272   0.000002
    22  H    0.000000   0.000001   0.000000   0.000000  -0.000038   0.000000
    23  H    0.000000   0.000000   0.000000  -0.000001   0.000420  -0.000030
    24  H    0.000000   0.000000   0.000000   0.000000  -0.000005   0.000000
    25  C    0.000000   0.000000   0.000000   0.000000   0.000000   0.000000
    26  H    0.000000   0.000000  -0.000001   0.000000   0.000000   0.000000
    27  H    0.000000   0.000000   0.000000   0.000000   0.000000   0.000000
    28  H    0.000000   0.000000   0.000000   0.000000   0.000000   0.000000
    29  C    0.000001   0.000001  -0.000011  -0.000001  -0.000005  -0.000004
    30  O    0.000000   0.000000   0.000000   0.000000   0.000000   0.000000
    31  F    8.992010  -0.044085  -0.042624   0.000000   0.000000   0.000000
    32  F   -0.044085   8.976426  -0.042452   0.000000   0.000000  -0.000003
    33  F   -0.042624  -0.042452   8.970788   0.000000   0.000000   0.000000
    34  F    0.000000   0.000000   0.000000   8.988567  -0.043201  -0.041648
    35  F    0.000000   0.000000   0.000000  -0.043201   8.970868  -0.042269
    36  F    0.000000  -0.000003   0.000000  -0.041648  -0.042269   9.000487
    37  F   -0.000002  -0.000001  -0.000196   0.000000   0.000000   0.000000
    38  F   -0.000001   0.000000   0.000000   0.000000   0.000000   0.000000
    39  F   -0.000378   0.000000  -0.000387   0.000000   0.000000   0.000000
    40  F    0.000000   0.000000   0.000000  -0.000376   0.000002  -0.000001
    41  F    0.000000   0.000000   0.000000   0.000000  -0.000001   0.000000
    42  F    0.000000   0.000000   0.000000  -0.000663  -0.000209   0.000000
              37         38         39         40         41         42
     1  Rh   0.014267   0.017760   0.005299   0.003059   0.019102   0.008083
     2  C   -0.000009  -0.000007  -0.000001   0.000000   0.000000  -0.000005
     3  O    0.000000   0.000000   0.000000   0.000000   0.000000   0.000000
     4  P   -0.051899  -0.053145  -0.053032  -0.000009  -0.000071  -0.000001
     5  C    0.325626   0.305824   0.309035   0.000000  -0.000004   0.000000
     6  C    0.001104   0.005618  -0.001787   0.000361  -0.000030  -0.000011
     7  P   -0.000002  -0.001113  -0.000027  -0.055057  -0.054842  -0.063040
     8  C    0.000000  -0.000020   0.000000   0.312615   0.319315   0.311078
     9  C   -0.000007  -0.000967   0.000178   0.007894  -0.001391   0.001313
    10  C    0.000770   0.001105   0.008189   0.000000   0.000000   0.000000
    11  C    0.000000   0.000000   0.000000  -0.000413   0.001103   0.010686
    12  H    0.000000  -0.000001   0.000000   0.000000   0.000283   0.000002
    13  H    0.000017   0.004206  -0.000041  -0.000013   0.003778   0.000131
    14  H    0.000000   0.000035  -0.000001   0.004221   0.000019  -0.000011
    15  H    0.000143  -0.000868   0.007420  -0.000003  -0.000001   0.000000
    16  H   -0.000025  -0.000024  -0.000098  -0.000004  -0.000001   0.000000
    17  H    0.000000   0.000000   0.000000   0.000075  -0.000967   0.009902
    18  H    0.000000   0.000000   0.000000   0.000000   0.000021   0.000011
    19  C    0.000000  -0.000001   0.000000  -0.000006   0.000482  -0.002784
    20  C    0.000001   0.000013   0.000000   0.000000  -0.000372   0.000069
    21  C    0.000000   0.000000   0.000000   0.000000   0.000002  -0.000004
    22  H    0.000000   0.000000   0.000000   0.000000   0.000000  -0.000001
    23  H    0.000000   0.000000   0.000000  -0.000001  -0.000027  -0.000174
    24  H    0.000000   0.000000   0.000000   0.000000   0.000000  -0.000001
    25  C   -0.000001  -0.000001   0.000000   0.000000  -0.000001   0.000000
    26  H   -0.000012   0.000000   0.000000   0.000000   0.000000   0.000000
    27  H   -0.000003   0.000000   0.000000   0.000000  -0.000002   0.000000
    28  H    0.000000   0.000000   0.000000   0.000000   0.000000   0.000000
    29  C    0.000453  -0.000411   0.000030   0.000004   0.000429   0.000015
    30  O   -0.000167  -0.000352   0.000000   0.000000  -0.000035   0.000000
    31  F   -0.000002  -0.000001  -0.000378   0.000000   0.000000   0.000000
    32  F   -0.000001   0.000000   0.000000   0.000000   0.000000   0.000000
    33  F   -0.000196   0.000000  -0.000387   0.000000   0.000000   0.000000
    34  F    0.000000   0.000000   0.000000  -0.000376   0.000000  -0.000663
    35  F    0.000000   0.000000   0.000000   0.000002  -0.000001  -0.000209
    36  F    0.000000   0.000000   0.000000  -0.000001   0.000000   0.000000
    37  F    8.958284  -0.042508  -0.043621   0.000000   0.000000   0.000000
    38  F   -0.042508   8.987579  -0.042061   0.000000  -0.000001   0.000000
    39  F   -0.043621  -0.042061   8.991488   0.000000   0.000000   0.000000
    40  F    0.000000   0.000000   0.000000   8.990909  -0.043897  -0.041602
    41  F    0.000000  -0.000001   0.000000  -0.043897   8.974282  -0.041269
    42  F    0.000000   0.000000   0.000000  -0.041602  -0.041269   8.988613
 Mulliken charges:
               1
     1  Rh  -0.130432
     2  C    0.057002
     3  O   -0.063696
     4  P    0.029403
     5  C    0.527003
     6  C   -0.141138
     7  P   -0.025824
     8  C    0.530255
     9  C   -0.142814
    10  C    0.527896
    11  C    0.534157
    12  H    0.057597
    13  H    0.109503
    14  H    0.106412
    15  H    0.106837
    16  H    0.109547
    17  H    0.043042
    18  H    0.040915
    19  C    0.020664
    20  C   -0.417832
    21  C    0.029884
    22  H    0.050105
    23  H    0.054818
    24  H    0.030028
    25  C    0.022213
    26  H    0.060925
    27  H    0.054480
    28  H    0.036572
    29  C    0.026125
    30  O   -0.123907
    31  F   -0.177495
    32  F   -0.176051
    33  F   -0.170227
    34  F   -0.178023
    35  F   -0.171196
    36  F   -0.189884
    37  F   -0.162214
    38  F   -0.180659
    39  F   -0.180206
    40  F   -0.177756
    41  F   -0.175902
    42  F   -0.180126
 Sum of Mulliken charges =   0.00000
 Mulliken charges with hydrogens summed into heavy atoms:
               1
     1  Rh  -0.130432
     2  C    0.057002
     3  O   -0.063696
     4  P    0.029403
     5  C    0.527003
     6  C    0.075247
     7  P   -0.025824
     8  C    0.530255
     9  C    0.073101
    10  C    0.527896
    11  C    0.534157
    19  C    0.162217
    20  C   -0.417832
    21  C    0.164835
    25  C    0.174191
    29  C    0.026125
    30  O   -0.123907
    31  F   -0.177495
    32  F   -0.176051
    33  F   -0.170227
    34  F   -0.178023
    35  F   -0.171196
    36  F   -0.189884
    37  F   -0.162214
    38  F   -0.180659
    39  F   -0.180206
    40  F   -0.177756
    41  F   -0.175902
    42  F   -0.180126
 Electronic spatial extent (au):  <R**2>=          10905.6248
 Charge=              0.0000 electrons
 Dipole moment (field-independent basis, Debye):
    X=             -0.6682    Y=             -1.9327    Z=             -0.4955  Tot=              2.1042
 Quadrupole moment (field-independent basis, Debye-Ang):
   XX=           -200.2831   YY=           -184.6740   ZZ=           -200.6924
   XY=             -8.3157   XZ=             -1.5512   YZ=              9.8273
 Traceless Quadrupole moment (field-independent basis, Debye-Ang):
   XX=             -5.0666   YY=             10.5425   ZZ=             -5.4759
   XY=             -8.3157   XZ=             -1.5512   YZ=              9.8273
 Octapole moment (field-independent basis, Debye-Ang**2):
  XXX=             13.6289  YYY=            -27.2032  ZZZ=            -13.0141  XYY=              1.9312
  XXY=              6.5417  XXZ=              5.6448  XZZ=              5.4428  YZZ=            -18.4568
  YYZ=              8.9167  XYZ=              0.7302
 Hexadecapole moment (field-independent basis, Debye-Ang**3):
 XXXX=          -5793.2851 YYYY=          -3990.9945 ZZZZ=          -2713.1938 XXXY=             82.9748
 XXXZ=             21.7728 YYYX=             30.3315 YYYZ=             12.8982 ZZZX=              6.7394
 ZZZY=            -17.9327 XXYY=          -1628.7554 XXZZ=          -1392.0412 YYZZ=          -1123.3322
 XXYZ=            -19.4467 YYXZ=             -7.2600 ZZXY=             28.2710
 N-N= 4.365998683993D+03 E-N=-1.486714897641D+04  KE= 2.520286840778D+03
 1\1\GINC-NXT1965\FOpt\RM06\def2SVP\C12H13F12O2P2Rh1\ROOT\03-Dec-2017\0
 \\#M06/def2SVP denfit opt=(modredundant,maxcyc=1000) scrf=(SMD,solvent
 =benzene)\\Sub-10-CF3-11-CF3-5-CF3-8-CF3/R/ts2 step 2 (attempt 1)\\0,1
 \Rh,-0.1242208275,0.0500507329,-0.2035432989\C,0.6844854014,0.07594724
 55,-2.0230008594\O,1.1733949864,0.0739042531,-3.0571012178\P,0.0905718
 283,2.2765180035,0.1750339527\C,0.2871040978,2.8802619042,1.9576571124
 \C,-1.4777480546,3.1405215198,-0.3165999564\P,-2.4077078381,0.50051393
 3,-0.6560232134\C,-3.9545204575,-0.2867724846,0.0957499252\C,-2.706885
 2911,2.2601287576,-0.1356955901\C,1.3477477196,3.4202550179,-0.6615959
 946\C,-2.994432781,0.576467554,-2.4512429264\H,-1.3836116385,-2.764417
 0171,2.100166635\H,-2.9912594992,2.195454121,0.9302890192\H,-3.5769481
 093,2.6794400046,-0.6684019794\H,-1.5822705881,4.0973258169,0.22197002
 4\H,-1.3410696653,3.3876728096,-1.3856093422\H,-2.0402235678,-2.715626
 4268,0.4366942561\H,-1.0480204637,-4.0896460031,0.9663957513\C,-1.1633
 326146,-2.9909344957,1.0459675688\C,0.1061214205,-2.3404208582,0.52983
 96238\C,0.3024856994,-2.7871220089,-0.9223105672\H,1.2426970116,-2.422
 8065508,-1.3637863289\H,-0.5363791866,-2.5227077551,-1.5854682099\H,0.
 3670050412,-3.8958249354,-0.9130473607\C,1.3337508457,-2.7626149247,1.
 3147125982\H,2.2395824989,-2.240317263,0.9652777216\H,1.2355976771,-2.
 5994859471,2.3983574021\H,1.4957251771,-3.8472192977,1.1599656937\C,-0
 .1463251643,-0.5907063408,1.5499108923\O,-0.2412524497,-0.6681413235,2
 .7067343223\F,1.0481826451,4.710296221,-0.5499631328\F,1.3849995763,3.
 1302608708,-1.9602877625\F,2.5570627817,3.2296280021,-0.1521620324\F,-
 4.2739790461,0.90095916,-2.6099547167\F,-2.7892413406,-0.5861497672,-3
 .0590928182\F,-2.2611430397,1.5043856115,-3.0748006919\F,1.3761086853,
 2.3837258731,2.5207598358\F,-0.7743726972,2.4591156815,2.6449911599\F,
 0.33732134,4.2055528631,2.0635325182\F,-5.046463496,0.4672282667,0.027
 8101154\F,-3.7151379305,-0.5298708802,1.3831139173\F,-4.2155666863,-1.
 4426089438,-0.5090420456\\Version=ES64L-G09RevD.01\State=1-A\HF=-2604.
 633835\RMSD=8.219e-09\RMSF=2.650e-04\Dipole=-0.6915631,0.3780882,-0.25
 32173\Quadrupole=-1.8734524,10.0036787,-8.1302263,-7.2846246,-0.769414
 9,-0.7328474\PG=C01 [X(C12H13F12O2P2Rh1)]\\@


 If your ship doesn't come in, swim out to it!
                          -- Jonathan Winters
 Job cpu time:       0 days 21 hours 42 minutes 52.1 seconds.
 File lengths (MBytes):  RWF=   2432 Int=      0 D2E=      0 Chk=     48 Scr=     32
 Normal termination of Gaussian 09 at Sun Dec  3 12:15:59 2017.
